/*--------------------------------*- C++ -*----------------------------------*\
| =========                 |                                                 |
| \\      /  F ield         | OpenFOAM: The Open Source CFD Toolbox           |
|  \\    /   O peration     | Version:  dev                                   |
|   \\  /    A nd           | Web:      www.OpenFOAM.org                      |
|    \\/     M anipulation  |                                                 |
\*---------------------------------------------------------------------------*/
FoamFile
{
    version     2.0;
    format      ascii;
    class       volScalarField;
    location    "601.2";
    object      T;
}
// * * * * * * * * * * * * * * * * * * * * * * * * * * * * * * * * * * * * * //

dimensions      [0 0 0 0 0 0 0];

internalField   nonuniform List<scalar> 
2500
(
1.57257e-09
1.00968e-09
1.46517e-09
8.04589e-10
1.14359e-09
1.34376e-09
2.45668e-09
2.41794e-09
1.0657e-09
-4.54179e-10
1.0964e-09
6.2885e-09
1.10243e-08
9.65059e-09
6.7998e-10
-1.00905e-08
-1.47161e-08
-7.98357e-09
7.43462e-09
2.33168e-08
3.16518e-08
2.46374e-08
6.57573e-09
-2.40294e-08
-5.25226e-08
-7.87708e-08
-9.75442e-08
-9.63602e-08
-9.1227e-08
-4.48251e-08
-6.6404e-09
7.53162e-08
1.52424e-07
2.14498e-07
3.13306e-07
2.56848e-07
2.93425e-07
6.71696e-08
-1.18136e-07
-3.78613e-07
-8.88693e-07
-8.32621e-07
-1.37397e-06
-7.41108e-07
-4.36991e-07
3.80749e-07
2.31982e-06
2.17597e-06
4.8415e-06
2.90207e-06
1.56596e-10
-1.80431e-10
2.81576e-10
-7.32275e-10
2.65241e-10
6.83605e-10
1.59337e-09
-3.38142e-10
-2.63158e-09
-1.70006e-09
5.21208e-09
1.24692e-08
1.05126e-08
-3.18578e-09
-1.82816e-08
-1.9109e-08
2.20634e-10
3.09601e-08
5.36528e-08
5.20538e-08
2.1783e-08
-2.97409e-08
-8.50264e-08
-1.30745e-07
-1.51842e-07
-1.47022e-07
-1.09546e-07
-4.18188e-08
3.02969e-08
1.19559e-07
1.78422e-07
2.49307e-07
3.0163e-07
3.46668e-07
4.20761e-07
3.72776e-07
3.76424e-07
1.48992e-07
-6.27836e-08
-3.60502e-07
-8.37525e-07
-8.741e-07
-1.31925e-06
-7.79934e-07
-4.30051e-07
4.45409e-07
2.19542e-06
2.32007e-06
4.68617e-06
2.73202e-06
-7.82716e-11
-2.21395e-10
2.67187e-11
-9.13063e-10
7.74977e-10
5.83927e-10
4.5273e-10
-2.82723e-09
-2.86595e-09
2.58489e-09
1.07424e-08
9.77236e-09
-5.41138e-09
-2.24672e-08
-2.04297e-08
8.14597e-09
4.53837e-08
6.24076e-08
3.8634e-08
-2.08274e-08
-9.02661e-08
-1.40544e-07
-1.46277e-07
-1.06036e-07
-2.23768e-08
8.43994e-08
2.01371e-07
3.14259e-07
3.98069e-07
4.73814e-07
4.94032e-07
5.10226e-07
4.83619e-07
4.48487e-07
4.68414e-07
4.03635e-07
4.42865e-07
2.42517e-07
7.64781e-08
-1.9687e-07
-6.58076e-07
-6.54308e-07
-1.13457e-06
-5.61229e-07
-2.72975e-07
5.58622e-07
2.3421e-06
2.23561e-06
4.8029e-06
2.70608e-06
-4.38429e-10
-6.0705e-10
-4.97749e-10
-1.04168e-09
9.90495e-10
-2.89112e-10
-1.14314e-09
-4.31514e-09
-1.52275e-10
7.81024e-09
1.09349e-08
-2.41525e-09
-2.25099e-08
-2.26477e-08
1.05326e-08
5.42306e-08
6.57476e-08
2.18946e-08
-6.13034e-08
-1.3504e-07
-1.53574e-07
-9.83743e-08
2.13081e-08
1.65589e-07
3.03698e-07
4.00942e-07
4.44336e-07
4.28291e-07
3.51276e-07
2.53197e-07
1.063e-07
-2.06455e-08
-1.71455e-07
-3.05142e-07
-3.6783e-07
-4.6069e-07
-3.85865e-07
-5.02482e-07
-5.40543e-07
-6.96641e-07
-9.88675e-07
-8.24788e-07
-1.11338e-06
-3.57263e-07
3.21709e-08
9.6308e-07
2.67698e-06
2.48122e-06
4.88813e-06
2.49523e-06
-6.23308e-10
-7.44484e-10
-7.44867e-10
-7.76602e-10
9.43635e-10
-1.63563e-09
-2.66188e-09
-4.12909e-09
4.72033e-09
1.02118e-08
2.27549e-09
-2.06236e-08
-2.84632e-08
4.51851e-09
5.69055e-08
6.9922e-08
8.62197e-09
-9.57157e-08
-1.67565e-07
-1.4075e-07
-1.03179e-08
1.75539e-07
3.45463e-07
4.29951e-07
4.10601e-07
2.77433e-07
5.8063e-08
-2.14607e-07
-5.03463e-07
-7.54484e-07
-9.92843e-07
-1.15932e-06
-1.32381e-06
-1.45099e-06
-1.52639e-06
-1.62696e-06
-1.54718e-06
-1.63849e-06
-1.62021e-06
-1.7499e-06
-1.95598e-06
-1.6888e-06
-1.781e-06
-7.3987e-07
-1.10938e-07
1.15191e-06
2.95934e-06
2.8243e-06
5.15888e-06
2.3438e-06
-7.58494e-10
-8.80093e-10
-7.84316e-10
-2.99712e-10
5.65143e-10
-2.78362e-09
-2.85421e-09
-1.1182e-09
1.01256e-08
6.31844e-09
-1.28747e-08
-3.09857e-08
-6.7409e-09
5.37825e-08
7.83034e-08
7.65279e-09
-1.20233e-07
-1.9113e-07
-1.16632e-07
9.02538e-08
3.19095e-07
4.48495e-07
3.99473e-07
1.67534e-07
-1.78205e-07
-5.79954e-07
-9.4822e-07
-1.23228e-06
-1.39906e-06
-1.4315e-06
-1.38832e-06
-1.25122e-06
-1.14045e-06
-1.0378e-06
-9.81968e-07
-1.03067e-06
-9.79383e-07
-1.1557e-06
-1.25855e-06
-1.6171e-06
-2.06364e-06
-2.07572e-06
-2.36064e-06
-1.35235e-06
-7.2252e-07
8.02815e-07
2.73227e-06
2.7922e-06
5.22914e-06
2.11667e-06
-9.03348e-10
-9.87463e-10
-7.13096e-10
-9.27416e-11
-4.21529e-10
-3.71269e-09
-2.0869e-09
2.79263e-09
1.12678e-08
-5.8948e-09
-2.67464e-08
-2.14508e-08
3.72574e-08
8.46319e-08
2.32414e-08
-1.271e-07
-2.11601e-07
-9.73131e-08
1.7981e-07
4.32809e-07
4.68544e-07
2.22488e-07
-2.37483e-07
-7.43774e-07
-1.13895e-06
-1.33862e-06
-1.26972e-06
-9.64881e-07
-4.79697e-07
1.06055e-07
6.87049e-07
1.26279e-06
1.7102e-06
2.0749e-06
2.2902e-06
2.333e-06
2.39421e-06
2.17172e-06
1.97284e-06
1.35309e-06
5.36905e-07
-4.419e-08
-9.59009e-07
-5.42084e-07
-5.41195e-07
6.81086e-07
2.24e-06
2.26343e-06
4.67149e-06
1.46091e-06
-1.12899e-09
-1.14617e-09
-6.71778e-10
-2.13428e-10
-1.50937e-09
-3.8204e-09
-1.7919e-10
6.27772e-09
6.42748e-09
-2.10708e-08
-2.74904e-08
1.01816e-08
7.73344e-08
5.46544e-08
-1.05546e-07
-2.3082e-07
-1.09266e-07
2.3254e-07
5.10232e-07
4.39216e-07
-2.34406e-08
-6.65916e-07
-1.17922e-06
-1.31216e-06
-1.01008e-06
-3.30639e-07
6.17649e-07
1.63747e-06
2.59489e-06
3.38522e-06
3.9552e-06
4.37585e-06
4.61585e-06
4.82379e-06
4.95399e-06
5.04489e-06
5.26032e-06
5.32166e-06
5.51987e-06
5.24162e-06
4.70037e-06
4.09201e-06
2.91165e-06
2.81202e-06
1.92591e-06
2.33897e-06
2.75269e-06
2.07969e-06
3.78465e-06
2.13962e-07
-1.49747e-09
-1.41384e-09
-8.28203e-10
-7.94703e-10
-2.6628e-09
-3.48076e-09
1.76963e-09
6.80814e-09
-4.3218e-09
-3.14517e-08
-1.00833e-08
4.89187e-08
7.90555e-08
-4.48675e-08
-2.29603e-07
-1.61474e-07
2.27199e-07
5.6864e-07
4.25074e-07
-2.39749e-07
-1.01833e-06
-1.39194e-06
-1.05776e-06
-7.63749e-08
1.23285e-06
2.55256e-06
3.58287e-06
4.11349e-06
4.13881e-06
3.73428e-06
3.05528e-06
2.31163e-06
1.58213e-06
1.10135e-06
8.29037e-07
8.61659e-07
1.32223e-06
1.9888e-06
3.16515e-06
4.0988e-06
4.99876e-06
5.71514e-06
5.72451e-06
6.44519e-06
5.69793e-06
5.89767e-06
5.12635e-06
3.3644e-06
3.63913e-06
-1.1521e-06
-2.05885e-09
-1.88315e-09
-1.3226e-09
-1.7871e-09
-3.72186e-09
-2.84942e-09
3.06781e-09
3.70938e-09
-1.62862e-08
-2.91411e-08
2.08986e-08
7.25593e-08
2.76804e-08
-1.65815e-07
-2.31461e-07
1.36026e-07
5.97888e-07
4.87764e-07
-3.42482e-07
-1.25709e-06
-1.43814e-06
-5.45724e-07
1.0899e-06
2.7305e-06
3.76673e-06
3.88111e-06
2.97947e-06
1.25429e-06
-9.17591e-07
-3.21204e-06
-5.33786e-06
-7.11744e-06
-8.55035e-06
-9.49979e-06
-1.01176e-05
-1.0296e-05
-9.95856e-06
-9.17621e-06
-7.50879e-06
-5.6481e-06
-3.18566e-06
-5.20415e-07
1.91033e-06
5.13386e-06
6.4869e-06
8.37539e-06
7.86179e-06
5.82578e-06
4.86598e-06
-1.82165e-06
-2.83021e-09
-2.60728e-09
-2.20598e-09
-3.10535e-09
-4.61774e-09
-2.04598e-09
3.48774e-09
-1.27393e-09
-2.24676e-08
-1.11384e-08
5.4625e-08
6.87449e-08
-5.45782e-08
-2.22756e-07
-4.10113e-08
5.38054e-07
6.43364e-07
-2.42409e-07
-1.37505e-06
-1.46471e-06
-5.08129e-08
2.12709e-06
3.72456e-06
3.769e-06
2.16324e-06
-7.29444e-07
-4.24235e-06
-7.62746e-06
-1.03313e-05
-1.21923e-05
-1.32361e-05
-1.37061e-05
-1.39428e-05
-1.40934e-05
-1.45092e-05
-1.5105e-05
-1.58647e-05
-1.66348e-05
-1.67511e-05
-1.65934e-05
-1.52107e-05
-1.28833e-05
-9.49064e-06
-4.2334e-06
-6.96128e-08
5.11149e-06
6.98124e-06
6.74138e-06
6.14099e-06
-1.64989e-06
-3.75754e-09
-3.57329e-09
-3.39385e-09
-4.41021e-09
-4.80818e-09
-3.15411e-10
4.56925e-09
-3.35527e-09
-1.61416e-08
2.06488e-08
8.29993e-08
4.362e-08
-1.20725e-07
-1.4948e-07
2.91307e-07
7.81938e-07
1.20202e-07
-1.29442e-06
-1.61229e-06
1.63487e-07
2.84578e-06
4.23403e-06
2.92006e-06
-7.10881e-07
-5.25446e-06
-9.33275e-06
-1.17574e-05
-1.20509e-05
-1.03971e-05
-7.48068e-06
-3.99871e-06
-6.69298e-07
1.97376e-06
3.66484e-06
3.99999e-06
3.06517e-06
7.21927e-07
-2.78784e-06
-6.81338e-06
-1.15096e-05
-1.53467e-05
-1.82083e-05
-1.8762e-05
-1.58944e-05
-1.20055e-05
-5.03791e-06
-5.63812e-07
2.61343e-06
4.28528e-06
-1.9273e-06
-4.66167e-09
-4.59647e-09
-4.45222e-09
-4.79554e-09
-2.90407e-09
4.4139e-09
9.98451e-09
3.80826e-09
6.68621e-09
6.24087e-08
1.04935e-07
1.42613e-08
-1.29843e-07
4.94775e-08
5.98114e-07
6.31572e-07
-8.44787e-07
-1.84244e-06
-1.7895e-07
3.12061e-06
4.56712e-06
2.00757e-06
-3.4966e-06
-8.80042e-06
-1.14635e-05
-1.03282e-05
-5.43619e-06
1.93874e-06
1.02028e-05
1.79924e-05
2.46146e-05
2.97481e-05
3.34816e-05
3.59998e-05
3.71921e-05
3.71649e-05
3.5376e-05
3.16974e-05
2.60542e-05
1.78521e-05
8.4859e-06
-1.94362e-06
-1.0772e-05
-1.61708e-05
-1.87634e-05
-1.55546e-05
-1.23391e-05
-7.0482e-06
-3.18158e-06
-4.77432e-06
-5.15345e-09
-5.15189e-09
-4.31691e-09
-2.43201e-09
3.66489e-09
1.5591e-08
2.44007e-08
2.47047e-08
4.44853e-08
1.06724e-07
1.15993e-07
-1.49312e-08
-8.60602e-08
2.72114e-07
6.65291e-07
3.14766e-08
-1.78787e-06
-1.16786e-06
2.54408e-06
4.92856e-06
1.77859e-06
-5.34064e-06
-1.09109e-05
-1.06409e-05
-4.2037e-06
6.60242e-06
1.85876e-05
2.87595e-05
3.54952e-05
3.86725e-05
3.92921e-05
3.86214e-05
3.80495e-05
3.84968e-05
4.02995e-05
4.35959e-05
4.73886e-05
5.08804e-05
5.25339e-05
5.03782e-05
4.42744e-05
3.29584e-05
1.92871e-05
5.12358e-06
-7.8191e-06
-1.4555e-05
-1.93726e-05
-1.7029e-05
-1.46981e-05
-1.11382e-05
-4.52952e-09
-4.13974e-09
-1.04029e-09
5.45472e-09
1.81198e-08
3.63947e-08
4.97839e-08
5.64125e-08
8.4273e-08
1.3183e-07
8.86123e-08
-7.90486e-08
-7.04175e-08
3.30015e-07
3.19347e-07
-8.9135e-07
-2.27274e-06
6.10973e-07
4.66031e-06
2.72083e-06
-5.81693e-06
-1.22467e-05
-9.15042e-06
2.91536e-06
1.81619e-05
3.06137e-05
3.55244e-05
3.19554e-05
2.17974e-05
8.28367e-06
-5.42983e-06
-1.70864e-05
-2.49912e-05
-2.83037e-05
-2.65795e-05
-1.95706e-05
-8.04075e-06
7.46807e-06
2.46422e-05
4.03664e-05
5.20574e-05
5.55467e-05
5.15229e-05
3.94433e-05
2.19124e-05
5.39309e-06
-1.16668e-05
-1.82867e-05
-2.36982e-05
-1.89175e-05
-1.67811e-09
2.73316e-10
8.05118e-09
2.17244e-08
4.22646e-08
6.56806e-08
7.86961e-08
7.96254e-08
8.98716e-08
8.44611e-08
-4.75939e-08
-2.74309e-07
-2.48168e-07
4.55183e-09
-5.19189e-07
-1.97817e-06
-2.27587e-06
2.40225e-06
3.92454e-06
-4.02073e-06
-1.34665e-05
-9.778e-06
7.14847e-06
2.53557e-05
3.3667e-05
2.6863e-05
6.08462e-06
-2.2055e-05
-5.07286e-05
-7.53786e-05
-9.43708e-05
-0.000108147
-0.000117614
-0.000123524
-0.000125391
-0.000122042
-0.000112402
-9.46328e-05
-6.91846e-05
-3.76331e-05
-3.51725e-06
2.64087e-05
4.87615e-05
5.73317e-05
5.19333e-05
3.69448e-05
1.25477e-05
-4.36771e-06
-2.1875e-05
-2.30142e-05
4.91677e-09
1.04629e-08
2.53341e-08
4.69901e-08
7.2254e-08
9.12819e-08
8.51431e-08
4.79374e-08
-9.56382e-09
-1.29503e-07
-4.07662e-07
-7.45712e-07
-8.05785e-07
-8.36164e-07
-1.79377e-06
-3.11382e-06
-2.10931e-06
2.97166e-06
-3.11965e-07
-1.20982e-05
-1.42026e-05
5.51947e-06
2.78179e-05
3.11766e-05
1.00294e-05
-2.81278e-05
-6.83427e-05
-9.80495e-05
-0.000112743
-0.000114735
-0.000109857
-0.000104192
-0.000102554
-0.000108049
-0.000120371
-0.000136733
-0.000152548
-0.000161508
-0.000158985
-0.000140652
-0.000106498
-6.18049e-05
-1.27472e-05
2.74749e-05
5.20728e-05
5.72757e-05
4.11136e-05
2.16533e-05
-5.19137e-06
-1.79301e-05
1.69407e-08
2.8423e-08
5.05929e-08
7.56429e-08
9.26339e-08
8.228e-08
1.65529e-08
-1.17224e-07
-3.16365e-07
-6.25009e-07
-1.10326e-06
-1.58701e-06
-1.76811e-06
-2.02275e-06
-3.1169e-06
-3.88583e-06
-1.6573e-06
2.37024e-06
-5.78461e-06
-1.61011e-05
-4.59034e-06
2.57527e-05
3.04985e-05
-2.77977e-06
-5.43377e-05
-9.51004e-05
-0.000103598
-7.88224e-05
-3.28103e-05
1.94495e-05
6.57544e-05
9.90591e-05
0.000115958
0.000113952
9.19957e-05
5.10365e-05
-3.99035e-06
-6.45204e-05
-0.000120841
-0.000160092
-0.000173137
-0.000155922
-0.00011074
-5.33328e-05
2.99564e-06
4.13105e-05
5.23142e-05
4.59163e-05
2.13484e-05
-1.6271e-06
3.56348e-08
5.38217e-08
7.75587e-08
9.10052e-08
7.06766e-08
-1.54164e-08
-2.04848e-07
-5.11678e-07
-9.246e-07
-1.45771e-06
-2.10051e-06
-2.60609e-06
-2.67024e-06
-2.69938e-06
-3.24678e-06
-2.77977e-06
7.53049e-07
3.23555e-06
-7.30372e-06
-1.11342e-05
1.29733e-05
3.7473e-05
9.36154e-07
-6.43471e-05
-0.000100624
-7.43994e-05
7.09338e-06
0.000110309
0.000206085
0.00028129
0.000335079
0.000371571
0.000394713
0.000405064
0.000398245
0.000366549
0.000305776
0.000217078
0.000107826
-4.97234e-06
-0.000101982
-0.000162558
-0.00017447
-0.000143985
-8.27218e-05
-1.91044e-05
2.80927e-05
5.00153e-05
4.4702e-05
2.21275e-05
6.07317e-08
8.11548e-08
9.02377e-08
6.17385e-08
-4.48161e-08
-2.728e-07
-6.59513e-07
-1.19681e-06
-1.82223e-06
-2.45911e-06
-2.96516e-06
-2.96733e-06
-2.11632e-06
-7.93633e-07
5.85e-07
3.58363e-06
9.17488e-06
1.12783e-05
2.14257e-06
6.10068e-06
3.49962e-05
3.61997e-05
-4.66882e-05
-9.74662e-05
-4.46809e-05
8.93058e-05
0.000228606
0.000317399
0.000345924
0.000334657
0.000313249
0.000305889
0.00032464
0.000370394
0.000432233
0.000488624
0.000516427
0.000496045
0.000418428
0.000290911
0.000134105
-1.58617e-05
-0.000124899
-0.000174267
-0.000157887
-0.000103114
-3.22765e-05
2.20561e-05
4.93997e-05
4.44005e-05
8.90525e-08
9.68091e-08
6.09524e-08
-5.71664e-08
-3.14721e-07
-7.52648e-07
-1.37666e-06
-2.10114e-06
-2.73156e-06
-3.003e-06
-2.55504e-06
-8.38643e-07
2.56094e-06
7.24903e-06
1.27353e-05
2.01733e-05
2.93509e-05
3.3463e-05
2.85738e-05
3.77215e-05
6.33361e-05
3.47733e-05
-7.27794e-05
-4.30582e-05
0.000124613
0.000276305
0.000294939
0.000182423
5.90936e-06
-0.000166959
-0.00029702
-0.000364808
-0.000359711
-0.000277116
-0.000124393
7.42887e-05
0.000281333
0.000451107
0.000543872
0.000535994
0.000427702
0.000253701
6.41672e-05
-8.83755e-05
-0.000163653
-0.000166264
-0.000106704
-3.47245e-05
2.66633e-05
5.47353e-05
1.1313e-07
7.75804e-08
-4.74854e-08
-3.15296e-07
-7.86226e-07
-1.46143e-06
-2.24919e-06
-2.88792e-06
-2.92831e-06
-1.79612e-06
1.15911e-06
6.64196e-06
1.5008e-05
2.5592e-05
3.73796e-05
5.06132e-05
6.40856e-05
7.11276e-05
7.00282e-05
8.04726e-05
0.000100139
5.08802e-05
-4.45688e-05
9.53736e-05
0.000280878
0.000218431
-7.99358e-05
-0.000452064
-0.000786184
-0.00103067
-0.00118584
-0.001276
-0.00130821
-0.00126262
-0.00111445
-0.000855903
-0.000508397
-0.000124237
0.000227751
0.000475622
0.000569622
0.000508228
0.000330631
0.000113159
-6.46094e-05
-0.000162773
-0.000158957
-0.000100873
-2.0652e-05
4.59136e-05
1.20415e-07
-7.50945e-09
-2.73605e-07
-7.47827e-07
-1.45492e-06
-2.28441e-06
-2.9378e-06
-2.83729e-06
-1.13858e-06
3.12458e-06
1.08363e-05
2.25891e-05
3.81791e-05
5.59553e-05
7.35242e-05
8.95743e-05
0.000102165
0.000105703
0.000100783
0.000106153
0.000120654
7.32707e-05
2.17443e-05
0.000227233
0.000253946
-0.000204926
-0.000748284
-0.00103776
-0.00111574
-0.00112674
-0.00115344
-0.00124826
-0.00142115
-0.00161564
-0.00173894
-0.00170761
-0.00148066
-0.00107273
-0.000551962
-3.2666e-05
0.00036543
0.000562172
0.000539427
0.000360877
0.000126815
-6.91126e-05
-0.000155031
-0.000148579
-7.83137e-05
1.71297e-05
9.36051e-08
-1.90865e-07
-6.4321e-07
-1.34884e-06
-2.22052e-06
-2.92483e-06
-2.80855e-06
-8.2619e-07
4.3438e-06
1.39636e-05
2.87442e-05
4.83457e-05
7.07666e-05
9.18448e-05
0.000106283
0.000110258
0.000101498
7.755e-05
4.42577e-05
2.52176e-05
3.06608e-05
1.44954e-05
2.59782e-05
0.000231348
7.23736e-05
-0.000584323
-0.000841625
-0.000445059
0.000195453
0.000662319
0.000845687
0.000737261
0.000333981
-0.000292446
-0.000985141
-0.00156238
-0.00187683
-0.00184564
-0.00147539
-0.000877383
-0.000228574
0.00028694
0.000545302
0.000540281
0.00034821
0.000100816
-7.92673e-05
-0.000153151
-0.000125494
-2.63409e-05
1.23237e-08
-4.95812e-07
-1.15232e-06
-2.04403e-06
-2.85277e-06
-2.87967e-06
-9.60619e-07
4.50473e-06
1.51965e-05
3.21661e-05
5.48668e-05
8.02523e-05
0.000102133
0.00011117
9.68268e-05
5.15895e-05
-2.62327e-05
-0.00013237
-0.000249948
-0.000340992
-0.000369048
-0.000340822
-0.000240191
1.91009e-05
3.93523e-05
-0.000236366
0.000441642
0.00184126
0.00315404
0.00393176
0.00424522
0.00419834
0.00372984
0.00280611
0.00155112
0.00020025
-0.000983425
-0.00176297
-0.00199725
-0.00170269
-0.00104908
-0.000306789
0.000269941
0.000546448
0.000513719
0.000299748
5.72082e-05
-0.000103714
-0.000145864
-7.34703e-05
-1.44233e-07
-9.24763e-07
-1.75319e-06
-2.67519e-06
-2.98976e-06
-1.48659e-06
3.61054e-06
1.43558e-05
3.22648e-05
5.69706e-05
8.45547e-05
0.000106195
0.000107769
7.10644e-05
-2.22758e-05
-0.000183832
-0.000412118
-0.000690354
-0.000982592
-0.00122737
-0.00135306
-0.00131534
-0.0010917
-0.000616686
4.64239e-05
0.000720705
0.00217825
0.00380127
0.0048632
0.00541176
0.0058865
0.00639831
0.00661665
0.00618954
0.00503384
0.00331926
0.00137258
-0.000394498
-0.00160548
-0.0020534
-0.00178079
-0.00106332
-0.00026108
0.00032702
0.000548905
0.000467207
0.000222657
-6.31541e-06
-0.00012898
-0.000115099
-3.90883e-07
-1.45412e-06
-2.34679e-06
-3.00333e-06
-2.17907e-06
1.94854e-06
1.17192e-05
2.91966e-05
5.45895e-05
8.3957e-05
0.000106671
0.000103795
4.86756e-05
-8.92531e-05
-0.000336765
-0.000705796
-0.00118351
-0.00172982
-0.00228035
-0.00274855
-0.00303823
-0.00307402
-0.00281425
-0.00222935
-0.00133917
-0.000486627
0.000261262
0.000627175
0.000433879
0.00050078
0.00159028
0.00361273
0.00577077
0.00722312
0.00750092
0.00653114
0.00456862
0.00214329
-8.92893e-05
-0.00157567
-0.00207727
-0.00173215
-0.000922016
-9.7446e-05
0.000415922
0.000547487
0.00037526
0.00011967
-7.79365e-05
-0.000141086
-7.30663e-07
-2.03601e-06
-2.79254e-06
-2.75014e-06
1.71729e-08
7.9352e-06
2.36078e-05
4.81886e-05
7.86876e-05
0.000104448
0.000103794
4.28181e-05
-0.000121449
-0.000432118
-0.00091807
-0.00157692
-0.00236234
-0.00318617
-0.00393864
-0.00451592
-0.00484736
-0.00492591
-0.00482726
-0.00470822
-0.00481453
-0.00560158
-0.00728641
-0.00961404
-0.0118361
-0.0124008
-0.0103963
-0.00621912
-0.00113886
0.00350584
0.00674601
0.00805001
0.00736301
0.00516048
0.00232316
-0.000187402
-0.00170792
-0.00206637
-0.00153355
-0.000639132
0.000127026
0.000509022
0.000477137
0.000247737
-7.2981e-06
-0.000141046
-1.16241e-06
-2.60562e-06
-2.9453e-06
-1.67423e-06
3.88613e-06
1.659e-05
3.86926e-05
6.90043e-05
9.8758e-05
0.000106756
5.57167e-05
-0.000106977
-0.00044063
-0.000992944
-0.00177424
-0.00273147
-0.00373469
-0.00459254
-0.00510651
-0.00515237
-0.0047579
-0.00414953
-0.00375058
-0.0041201
-0.0058399
-0.00936363
-0.0146449
-0.0207936
-0.0260702
-0.0283654
-0.0266195
-0.0212898
-0.0137794
-0.00570982
0.00141501
0.00635279
0.00839427
0.00765215
0.00504252
0.00188734
-0.000643374
-0.00191437
-0.00193082
-0.00117945
-0.000265902
0.000351579
0.000505774
0.000351954
6.76246e-05
-0.000107423
-1.68176e-06
-3.10342e-06
-2.69394e-06
3.59593e-07
9.46121e-06
2.75271e-05
5.55456e-05
8.81417e-05
0.000107818
7.90117e-05
-5.46409e-05
-0.000364851
-0.000919923
-0.00175066
-0.00280607
-0.00391344
-0.00476571
-0.00496247
-0.00412106
-0.00204535
0.00110116
0.00469454
0.00768684
0.00880967
0.00691147
0.00139005
-0.00755623
-0.0185531
-0.0290188
-0.0362483
-0.0385808
-0.0358003
-0.0287399
-0.0188989
-0.00829354
0.000844898
0.0067292
0.00868681
0.0073452
0.00421215
0.000945968
-0.0012646
-0.00201602
-0.00161066
-0.000692673
0.000103074
0.000458551
0.000415167
0.000140216
-3.67656e-05
-2.2871e-06
-3.4968e-06
-2.00482e-06
3.31657e-06
1.64623e-05
3.98799e-05
7.21735e-05
0.0001018
9.97331e-05
1.31417e-05
-0.000234403
-0.000728764
-0.00153
-0.00261396
-0.00380008
-0.00469036
-0.00465813
-0.00292836
0.00122529
0.00818385
0.0176665
0.0285256
0.0387874
0.0460123
0.047911
0.0430917
0.0313404
0.0141433
-0.00520491
-0.0229609
-0.035916
-0.0420509
-0.0406983
-0.0327371
-0.0206393
-0.00789021
0.0022134
0.00774597
0.00863865
0.00630506
0.00276509
-0.000233711
-0.00178018
-0.00186756
-0.00108748
-0.000192086
0.000349792
0.000434958
0.000214208
6.72297e-05
-2.98145e-06
-3.79503e-06
-9.45953e-07
6.97244e-06
2.43267e-05
5.24855e-05
8.65501e-05
0.000107056
7.1419e-05
-9.1625e-05
-0.00047618
-0.00117146
-0.00220264
-0.00343853
-0.00448121
-0.0045757
-0.00259912
0.00280652
0.0129192
0.0284628
0.0490866
0.0729942
0.0969329
0.116681
0.127969
0.127629
0.114247
0.0890165
0.0559914
0.020729
-0.0108163
-0.0335919
-0.044513
-0.0433653
-0.0329939
-0.018323
-0.00450063
0.00488141
0.00865139
0.00780018
0.00450224
0.000987932
-0.00129076
-0.00193677
-0.00140225
-0.000485343
0.00020689
0.000426648
0.000297591
0.000192927
-3.76645e-06
-4.04595e-06
3.18699e-07
1.09428e-05
3.23119e-05
6.41574e-05
9.7196e-05
0.000102906
2.43494e-05
-0.00022721
-0.000758027
-0.00164582
-0.00284975
-0.00407551
-0.00461796
-0.00323514
0.00186244
0.0128154
0.031654
0.0595985
0.0962713
0.13909
0.183145
0.221787
0.24789
0.255548
0.241451
0.206232
0.154928
0.0957415
0.0384269
-0.00796839
-0.0372834
-0.0478666
-0.0428222
-0.0285538
-0.0122236
0.000651315
0.00748421
0.00854235
0.00592124
0.00220138
-0.000659888
-0.00184861
-0.00161328
-0.000736065
6.30833e-05
0.000413655
0.000388163
0.000317789
-4.62667e-06
-4.30758e-06
1.57345e-06
1.47636e-05
3.96467e-05
7.3952e-05
0.000103592
9.07429e-05
-3.5257e-05
-0.000377817
-0.00104817
-0.00209771
-0.00339258
-0.00443105
-0.00413438
-0.000682842
0.00849283
0.0264425
0.0560703
0.0991776
0.155367
0.22115
0.289674
0.351401
0.395763
0.413522
0.399114
0.352561
0.280153
0.193287
0.106069
0.0319446
-0.0196216
-0.0453932
-0.0485942
-0.0369781
-0.0196537
-0.00410266
0.00553276
0.00859824
0.00691199
0.00325265
-4.9984e-06
-0.00165555
-0.00171648
-0.000914211
-4.90087e-05
0.000412092
0.0004664
0.000413396
-5.50666e-06
-4.59651e-06
2.63119e-06
1.80106e-05
4.56897e-05
8.13418e-05
0.000106263
7.40803e-05
-9.76845e-05
-0.000523315
-0.00131252
-0.00248057
-0.00378749
-0.00450837
-0.0031742
0.00262739
0.0162551
0.0416696
0.0826404
0.141531
0.217894
0.30729
0.400866
0.486126
0.549011
0.576949
0.562199
0.504301
0.410939
0.296755
0.180054
0.0783964
0.00429004
-0.0375293
-0.0502708
-0.0427603
-0.0257637
-0.00852463
0.00333245
0.00819167
0.0074832
0.0040517
0.000575369
-0.00141635
-0.00172487
-0.0010081
-0.000116719
0.000409546
0.000495168
0.000446966
-6.29069e-06
-4.82679e-06
3.4351e-06
2.04404e-05
5.00744e-05
8.62676e-05
0.00010653
5.76261e-05
-0.000151923
-0.000643475
-0.00152153
-0.00276455
-0.00403393
-0.00440504
-0.00206704
0.00590362
0.0235378
0.0555613
0.106456
0.179029
0.272737
0.382284
0.497071
0.602076
0.680308
0.716472
0.701121
0.633549
0.52274
0.386058
0.245174
0.120847
0.0279118
-0.0277157
-0.0491454
-0.0459143
-0.0299823
-0.0119369
0.00140707
0.00761161
0.00772418
0.00457157
0.00101822
-0.00118003
-0.00166208
-0.00102909
-0.00015812
0.000368203
0.000438305
0.00039341
-6.80001e-06
-4.76733e-06
4.15107e-06
2.21251e-05
5.28307e-05
8.91072e-05
0.000106071
4.60522e-05
-0.000188097
-0.000721715
-0.00165432
-0.00293726
-0.0041627
-0.00426909
-0.00121537
0.00826103
0.0286297
0.065106
0.122614
0.204209
0.30924
0.431793
0.560094
0.677469
0.765072
0.80596
0.78973
0.715675
0.59375
0.443065
0.287316
0.149081
0.044482
-0.0199124
-0.0471147
-0.0469972
-0.0321498
-0.0139235
0.0001502
0.00711128
0.00774105
0.00481823
0.00128473
-0.000993693
-0.00157285
-0.00102249
-0.000222403
0.0002429
0.000274934
0.000238717
-6.82199e-06
-4.05262e-06
5.20463e-06
2.35375e-05
5.44732e-05
9.06329e-05
0.000106511
4.29252e-05
-0.000199369
-0.000747368
-0.00169908
-0.00299658
-0.00420837
-0.00422704
-0.000936578
0.00903195
0.0302791
0.0681562
0.127694
0.211978
0.320268
0.446404
0.578216
0.698532
0.788016
0.829377
0.812115
0.735741
0.610671
0.456553
0.297518
0.156389
0.0493586
-0.0170016
-0.0456991
-0.0465964
-0.0323157
-0.0143034
-0.000222719
0.00684801
0.00761203
0.00480585
0.00134896
-0.000905435
-0.00151655
-0.00104834
-0.000357172
1.29002e-05
9.78213e-06
-1.40664e-05
-6.17376e-06
-2.27352e-06
7.21196e-06
2.55214e-05
5.60101e-05
9.19809e-05
0.000109198
5.0097e-05
-0.00018298
-0.000716674
-0.00165219
-0.00294303
-0.00418507
-0.00432482
-0.00133881
0.00800084
0.0281034
0.0640922
0.120769
0.201049
0.304158
0.424111
0.549179
0.66289
0.746795
0.784534
0.766321
0.692032
0.571985
0.425139
0.274512
0.141642
0.0416141
-0.0196681
-0.0453399
-0.0449535
-0.0305863
-0.0131081
0.000289899
0.00683193
0.00734171
0.00452485
0.00118321
-0.000958365
-0.00154051
-0.00114087
-0.000569126
-0.000297968
-0.0003232
-0.000334144
-4.78139e-06
8.59933e-07
1.07793e-05
2.90847e-05
5.87864e-05
9.45717e-05
0.000115177
6.7689e-05
-0.000140226
-0.000632451
-0.00151684
-0.00277583
-0.00407679
-0.00450717
-0.00228219
0.00547014
0.0226902
0.0539646
0.103589
0.174154
0.264922
0.370474
0.480254
0.579514
0.651839
0.682829
0.66405
0.595818
0.487822
0.357296
0.22486
0.109513
0.0242594
-0.0262116
-0.0452689
-0.0418853
-0.0270815
-0.0105578
0.00148895
0.00693389
0.00686829
0.00395375
0.000779593
-0.00115925
-0.0016474
-0.00128927
-0.000829673
-0.000649574
-0.000686777
-0.000691997
-2.73408e-06
5.34563e-06
1.62142e-05
3.50111e-05
6.40852e-05
9.98306e-05
0.000125157
9.4385e-05
-7.58381e-05
-0.000503325
-0.00130282
-0.00249523
-0.00384706
-0.00464399
-0.00343845
0.00213922
0.0153716
0.0401001
0.0799319
0.137041
0.210797
0.296627
0.385662
0.465569
0.522719
0.545323
0.526679
0.467531
0.376522
0.268427
0.160593
0.0686562
0.00292529
-0.0334464
-0.0440708
-0.0370913
-0.0220649
-0.00708268
0.00300936
0.00694328
0.00612887
0.00312751
0.000219043
-0.00141466
-0.0017446
-0.00140312
-0.00104865
-0.000952694
-0.000999545
-0.000997697
-2.70648e-07
1.08108e-05
2.32833e-05
4.34158e-05
7.25304e-05
0.000108613
0.000139214
0.000127649
2.78713e-06
-0.000342917
-0.00102749
-0.0021099
-0.00346273
-0.00458971
-0.00441923
-0.00114531
0.0077753
0.0253498
0.054422
0.0967199
0.151763
0.215971
0.282397
0.341424
0.382509
0.396697
0.379121
0.330862
0.259237
0.176186
0.0953811
0.0287622
-0.0162542
-0.0380887
-0.0404819
-0.0305236
-0.0160389
-0.00327476
0.00441665
0.00665492
0.00510961
0.00214222
-0.000369573
-0.00161303
-0.00175722
-0.00144013
-0.00120211
-0.0011897
-0.00124036
-0.00124497
2.31247e-06
1.66159e-05
3.11977e-05
5.35135e-05
8.35801e-05
0.000120524
0.000156222
0.00016364
8.62288e-05
-0.000168782
-0.000715996
-0.00164345
-0.00291798
-0.00424635
-0.00491511
-0.0036625
0.00133555
0.0122728
0.0312516
0.0595742
0.0969272
0.140722
0.185907
0.225513
0.251978
0.259027
0.243482
0.206621
0.154303
0.0955943
0.0405333
-0.00249856
-0.0287851
-0.0380985
-0.0340941
-0.0226358
-0.00971515
0.000277637
0.00541006
0.00605584
0.0039953
0.00126777
-0.00072113
-0.00154051
-0.00152589
-0.00127069
-0.00116147
-0.00122124
-0.00127535
-0.00127231
4.78159e-06
2.21186e-05
3.8916e-05
6.38513e-05
9.55269e-05
0.000133615
0.000173346
0.000196767
0.000162942
-2.13765e-06
-0.000401428
-0.00113766
-0.00224788
-0.00360302
-0.00478915
-0.00500887
-0.00306026
0.00254041
0.0132462
0.0299887
0.052609
0.0793974
0.106971
0.130671
0.145501
0.147448
0.134709
0.10859
0.0735059
0.0358863
0.0025348
-0.0212361
-0.0329262
-0.0332629
-0.0255656
-0.0143863
-0.00395273
0.00301522
0.00575718
0.0051545
0.00290594
0.000620042
-0.000792277
-0.00123883
-0.00114776
-0.00100533
-0.00102714
-0.00114021
-0.00118451
-0.00120234
7.03301e-06
2.69418e-05
4.56379e-05
7.30227e-05
0.000106326
0.000145196
0.000186815
0.000220529
0.000220271
0.000133287
-0.000123628
-0.000651486
-0.00152859
-0.00274135
-0.00409851
-0.00515671
-0.00519684
-0.00329446
0.00148513
0.00977326
0.0215295
0.0357426
0.0503549
0.0625285
0.0692684
0.06828
0.0587402
0.0418322
0.0206624
-0.000557215
-0.0176404
-0.0276495
-0.0296733
-0.0249421
-0.0162256
-0.00679029
0.00068147
0.00480939
0.0056552
0.00431814
0.00223594
0.000529069
-0.000343713
-0.000531931
-0.000459856
-0.00045763
-0.000584614
-0.0007212
-0.000767604
-0.000770311
9.03397e-06
3.10162e-05
5.10999e-05
8.03491e-05
0.000114739
0.000153442
0.000194044
0.000230384
0.00024831
0.000215997
7.60133e-05
-0.000254963
-0.00086705
-0.0018141
-0.00305271
-0.00438392
-0.00542685
-0.00565356
-0.00450265
-0.00156595
0.00319136
0.00925209
0.0155035
0.0204027
0.0223566
0.0202349
0.0138194
0.00406875
-0.00700462
-0.0168939
-0.0233303
-0.025009
-0.0219772
-0.0155658
-0.00787129
-0.00101225
0.00355259
0.00538397
0.00499653
0.00344681
0.00179455
0.000688174
0.000236986
0.000174399
0.000164712
4.48211e-05
-0.000137855
-0.000269076
-0.000301405
-0.000336205
1.07571e-05
3.44139e-05
5.54634e-05
8.60165e-05
0.00012094
0.000158694
0.000195972
0.000227817
0.000246846
0.000237481
0.000168765
-1.29762e-05
-0.000382065
-0.00101443
-0.00194945
-0.00314373
-0.00443893
-0.00556821
-0.00621529
-0.00612072
-0.00520735
-0.00367962
-0.00204489
-0.00101872
-0.00131374
-0.00336538
-0.00709385
-0.0118083
-0.0163342
-0.0193617
-0.0198831
-0.0175684
-0.0129052
-0.00704523
-0.00140207
0.00283229
0.00506016
0.00539164
0.00447485
0.00314092
0.00204108
0.00144056
0.00124185
0.00118289
0.0010642
0.000858906
0.000658534
0.000538044
0.000487786
0.000478788
1.19713e-05
3.69861e-05
5.87793e-05
9.03134e-05
0.000125701
0.000162727
0.000196701
0.000221384
0.000230396
0.000215634
0.000164764
5.47028e-05
-0.000154453
-0.000519523
-0.00110091
-0.00193483
-0.00300071
-0.00420282
-0.00538452
-0.00637989
-0.00708715
-0.00753138
-0.00788176
-0.00840236
-0.0093425
-0.0108006
-0.0125934
-0.0142783
-0.0152634
-0.0149818
-0.0131385
-0.0098572
-0.00569622
-0.00148164
0.00196482
0.00410388
0.00483816
0.00449043
0.00361652
0.00274835
0.00219137
0.00196724
0.00190947
0.00183395
0.00166806
0.00146191
0.00130088
0.00121703
0.00118139
0.00115571
1.3468e-05
3.84193e-05
6.12412e-05
9.32733e-05
0.000129173
0.000166171
0.000198755
0.000219047
0.000218336
0.000187282
0.000117507
9.30146e-07
-0.000172597
-0.000419784
-0.000767172
-0.00124885
-0.00189561
-0.00271825
-0.00369385
-0.00476602
-0.00586332
-0.00692823
-0.0079377
-0.00889677
-0.00979925
-0.010576
-0.0111028
-0.0111621
-0.0104959
-0.00895561
-0.00657976
-0.00364945
-0.000629588
0.00196304
0.00373363
0.00454046
0.0045271
0.0040369
0.00345149
0.00303302
0.00284707
0.00279793
0.00274176
0.00259861
0.00239058
0.00219372
0.0020595
0.00198073
0.00192723
0.00191137
1.29201e-05
3.8901e-05
6.13406e-05
9.39694e-05
0.000130275
0.000167894
0.000201254
0.000222206
0.000221369
0.000187678