/*--------------------------------*- C++ -*----------------------------------*\
| =========                 |                                                 |
| \\      /  F ield         | OpenFOAM: The Open Source CFD Toolbox           |
|  \\    /   O peration     | Version:  dev                                   |
|   \\  /    A nd           | Web:      www.OpenFOAM.org                      |
|    \\/     M anipulation  |                                                 |
\*---------------------------------------------------------------------------*/
FoamFile
{
    version     2.0;
    format      ascii;
    class       volScalarField;
    location    "600.3";
    object      T;
}
// * * * * * * * * * * * * * * * * * * * * * * * * * * * * * * * * * * * * * //

dimensions      [0 0 0 0 0 0 0];

internalField   nonuniform List<scalar> 
2500
(
1.50568e-09
9.39208e-10
1.38797e-09
7.29149e-10
1.07857e-09
1.22693e-09
2.25846e-09
2.19025e-09
9.57485e-10
-4.32687e-10
9.89907e-10
5.7092e-09
9.96252e-09
8.61574e-09
3.78914e-10
-9.35131e-09
-1.33851e-08
-7.05178e-09
7.06883e-09
2.1444e-08
2.90186e-08
2.26904e-08
6.68598e-09
-2.06309e-08
-4.62972e-08
-7.01321e-08
-8.84946e-08
-8.85271e-08
-8.61734e-08
-4.574e-08
-1.15486e-08
6.01098e-08
1.32503e-07
1.8417e-07
2.76945e-07
2.27488e-07
2.62096e-07
8.36621e-08
-8.46302e-08
-2.72238e-07
-7.35931e-07
-6.85561e-07
-1.17767e-06
-7.50351e-07
-4.75197e-07
3.12129e-08
1.77737e-06
1.66031e-06
4.03338e-06
2.87747e-06
1.99959e-10
-1.36021e-10
3.40115e-10
-6.57283e-10
3.35747e-10
6.56886e-10
1.52393e-09
-2.96105e-10
-2.36299e-09
-1.49245e-09
4.8547e-09
1.14308e-08
9.47912e-09
-3.20564e-09
-1.69927e-08
-1.75053e-08
3.85419e-10
2.84757e-08
4.88906e-08
4.71127e-08
1.95884e-08
-2.67982e-08
-7.59746e-08
-1.16605e-07
-1.3555e-07
-1.32301e-07
-1.01864e-07
-4.48627e-08
1.52128e-08
9.29318e-08
1.46139e-07
2.10536e-07
2.61975e-07
2.99855e-07
3.69151e-07
3.26376e-07
3.32516e-07
1.49273e-07
-3.8781e-08
-2.66825e-07
-6.98533e-07
-7.31583e-07
-1.14599e-06
-7.83155e-07
-4.88555e-07
1.01625e-07
1.66751e-06
1.7954e-06
3.92474e-06
2.74533e-06
-8.76394e-13
-1.49714e-10
1.18054e-10
-8.20736e-10
8.29383e-10
5.44845e-10
4.84794e-10
-2.60354e-09
-2.54155e-09
2.50066e-09
9.99597e-09
8.93079e-09
-5.2506e-09
-2.09389e-08
-1.87186e-08
7.99189e-09
4.22578e-08
5.74255e-08
3.4923e-08
-1.9943e-08
-8.32366e-08
-1.28554e-07
-1.33119e-07
-9.65278e-08
-2.14781e-08
7.35431e-08
1.76669e-07
2.76808e-07
3.50573e-07
4.19908e-07
4.42416e-07
4.63159e-07
4.51122e-07
4.23104e-07
4.47222e-07
3.8774e-07
4.23318e-07
2.62645e-07
1.11004e-07
-9.7597e-08
-5.26178e-07
-5.31154e-07
-9.87724e-07
-6.08114e-07
-3.65739e-07
1.73008e-07
1.78739e-06
1.71427e-06
4.03362e-06
2.72921e-06
-3.27921e-10
-4.98467e-10
-3.70402e-10
-9.32815e-10
1.04394e-09
-2.91519e-10
-9.71318e-10
-3.98473e-09
5.56978e-11
7.37015e-09
1.01152e-08
-2.54267e-09
-2.12004e-08
-2.08829e-08
1.04873e-08
5.10297e-08
6.08299e-08
1.90818e-08
-5.84133e-08
-1.25901e-07
-1.41573e-07
-8.9463e-08
2.11038e-08
1.52867e-07
2.7819e-07
3.66002e-07
4.0492e-07
3.91852e-07
3.24548e-07
2.42008e-07
1.18091e-07
1.35107e-08
-1.0716e-07
-2.19399e-07
-2.64843e-07
-3.48507e-07
-2.8011e-07
-3.65571e-07
-3.97956e-07
-4.97047e-07
-7.74471e-07
-6.37677e-07
-9.36041e-07
-4.03327e-07
-8.47154e-08
5.27791e-07
2.08779e-06
1.92483e-06
4.12883e-06
2.57562e-06
-4.86117e-10
-6.03984e-10
-5.85541e-10
-6.51522e-10
1.01414e-09
-1.5475e-09
-2.32061e-09
-3.76767e-09
4.71703e-09
9.55202e-09
1.91909e-09
-1.95621e-08
-2.63785e-08
5.21673e-09
5.42278e-08
6.51336e-08
6.18479e-09
-9.16361e-08
-1.57114e-07
-1.2945e-07
-6.17078e-09
1.66295e-07
3.21858e-07
3.97301e-07
3.77999e-07
2.56054e-07
5.69953e-08
-1.88309e-07
-4.48224e-07
-6.71394e-07
-8.82217e-07
-1.02776e-06
-1.16839e-06
-1.28253e-06
-1.3458e-06
-1.44394e-06
-1.37617e-06
-1.4432e-06
-1.41895e-06
-1.48105e-06
-1.66522e-06
-1.41431e-06
-1.52535e-06
-7.21643e-07
-1.80442e-07
7.27589e-07
2.38698e-06
2.26279e-06
4.42084e-06
2.48679e-06
-5.94048e-10
-7.10136e-10
-6.12716e-10
-1.85237e-10
6.3934e-10
-2.61643e-09
-2.44895e-09
-9.33086e-10
9.80945e-09
5.65972e-09
-1.23973e-08
-2.90673e-08
-5.34286e-09
5.18642e-08
7.35165e-08
4.82437e-09
-1.15903e-07
-1.79824e-07
-1.05656e-07
9.09063e-08
3.03675e-07
4.19561e-07
3.68073e-07
1.48532e-07
-1.71973e-07
-5.40081e-07
-8.74889e-07
-1.13151e-06
-1.28384e-06
-1.31599e-06
-1.28397e-06
-1.16916e-06
-1.07753e-06
-1.00073e-06
-9.6181e-07
-1.03195e-06
-1.00859e-06
-1.17446e-06
-1.27256e-06
-1.54411e-06
-1.93877e-06
-1.91652e-06
-2.17855e-06
-1.36185e-06
-7.74123e-07
4.12076e-07
2.24239e-06
2.30389e-06
4.59697e-06
2.37302e-06
-7.0833e-10
-7.85489e-10
-5.21276e-10
4.28537e-11
-2.82779e-10
-3.41548e-09
-1.64803e-09
2.78764e-09
1.08461e-08
-6.11898e-09
-2.5268e-08
-1.95009e-08
3.67088e-08
8.03036e-08
1.93952e-08
-1.23951e-07
-2.00453e-07
-8.64771e-08
1.78257e-07
4.13327e-07
4.37953e-07
1.97533e-07
-2.37933e-07
-7.08717e-07
-1.0691e-06
-1.24563e-06
-1.17537e-06
-8.92302e-07
-4.50567e-07
7.8167e-08
5.94531e-07
1.10159e-06
1.49029e-06
1.79693e-06
1.97241e-06
1.97249e-06
1.98647e-06
1.74565e-06
1.52387e-06
9.76879e-07
2.09491e-07
-3.06035e-07
-1.16018e-06
-8.63437e-07
-8.06426e-07
1.67513e-07
1.77232e-06
1.85804e-06
4.22954e-06
1.91549e-06
-9.00311e-10
-9.08214e-10
-4.5427e-10
-4.32937e-11
-1.29207e-09
-3.42941e-09
1.8012e-10
6.04672e-09
6.05323e-09
-2.07064e-08
-2.54494e-08
1.09107e-08
7.42537e-08
4.96831e-08
-1.04975e-07
-2.20877e-07
-9.75242e-08
2.31476e-07
4.89204e-07
4.08085e-07
-4.22358e-08
-6.51042e-07
-1.12419e-06
-1.23063e-06
-9.29028e-07
-2.82554e-07
6.03081e-07
1.54297e-06
2.41553e-06
3.13181e-06
3.6439e-06
4.02229e-06
4.23862e-06
4.42472e-06
4.54827e-06
4.61627e-06
4.7892e-06
4.80374e-06
4.92417e-06
4.64647e-06
4.06541e-06
3.45276e-06
2.2591e-06
2.01556e-06
1.2171e-06
1.45318e-06
2.1014e-06
1.61644e-06
3.49634e-06
9.08933e-07
-1.24206e-09
-1.14426e-09
-5.77842e-10
-5.66635e-10
-2.34996e-09
-3.04221e-09
1.96498e-09
6.37898e-09
-4.54296e-09
-3.06414e-08
-8.37063e-09
4.72921e-08
7.39556e-08
-4.79579e-08
-2.23046e-07
-1.49122e-07
2.29044e-07
5.48169e-07
3.92357e-07
-2.56418e-07
-9.93931e-07
-1.32501e-06
-9.76271e-07
-2.37317e-08
1.21803e-06
2.44733e-06
3.38921e-06
3.85766e-06
3.85884e-06
3.47414e-06
2.85007e-06
2.1854e-06
1.54793e-06
1.14915e-06
9.59449e-07
1.03845e-06
1.50813e-06
2.13993e-06
3.21241e-06
4.07699e-06
4.81455e-06
5.37961e-06
5.17046e-06
5.55833e-06
4.73949e-06
4.66114e-06
4.19126e-06
2.68335e-06
3.35579e-06
-2.86058e-07
-1.80401e-09
-1.60083e-09
-1.04679e-09
-1.51336e-09
-3.37198e-09
-2.51143e-09
2.92819e-09
2.97862e-09
-1.65355e-08
-2.84678e-08
2.11167e-08
6.8011e-08
2.20367e-08
-1.65094e-07
-2.20713e-07
1.42586e-07
5.81608e-07
4.52887e-07
-3.63187e-07
-1.23101e-06
-1.36594e-06
-4.68691e-07
1.11276e-06
2.6589e-06
3.59785e-06
3.64878e-06
2.74647e-06
1.09252e-06
-9.48017e-07
-3.07078e-06
-5.01278e-06
-6.61186e-06
-7.87873e-06
-8.68848e-06
-9.17118e-06
-9.24619e-06
-8.82393e-06
-7.99906e-06
-6.35412e-06
-4.49978e-06
-2.18329e-06
3.00631e-07
2.36258e-06
5.04616e-06
6.04508e-06
7.36611e-06
6.98502e-06
5.05044e-06
4.55001e-06
-9.06784e-07
-2.63928e-09
-2.36465e-09
-1.95573e-09
-2.87218e-09
-4.40502e-09
-2.09268e-09
2.69882e-09
-2.62958e-09
-2.32487e-08
-1.15092e-08
5.22676e-08
6.15195e-08
-5.89854e-08
-2.18011e-07
-3.08154e-08
5.30864e-07
6.0959e-07
-2.72408e-07
-1.35618e-06
-1.39096e-06
2.55124e-08
2.12975e-06
3.61131e-06
3.56374e-06
1.94178e-06
-8.67981e-07
-4.20953e-06
-7.37428e-06
-9.85507e-06
-1.15257e-05
-1.2437e-05
-1.28276e-05
-1.30263e-05
-1.31617e-05
-1.35411e-05
-1.40854e-05
-1.47388e-05
-1.53768e-05
-1.53376e-05
-1.49426e-05
-1.34224e-05
-1.09773e-05
-7.76014e-06
-2.93171e-06
7.97376e-07
5.19983e-06
6.94268e-06
6.43717e-06
6.1245e-06
-6.81651e-07
-3.74919e-09
-3.48069e-09
-3.30753e-09
-4.44372e-09
-5.09138e-09
-1.21457e-09
2.6551e-09
-5.80629e-09
-1.80179e-08
1.85538e-08
7.79285e-08
3.54055e-08
-1.21676e-07
-1.41314e-07
2.96528e-07
7.59068e-07
8.24335e-08
-1.29218e-06
-1.54179e-06
2.48328e-07
2.84638e-06
4.09725e-06
2.69519e-06
-8.99153e-07
-5.27653e-06
-9.1047e-06
-1.12769e-05
-1.13949e-05
-9.68746e-06
-6.84377e-06
-3.54259e-06
-4.56677e-07
1.91732e-06
3.35449e-06
3.49808e-06
2.43821e-06
9.47987e-08
-3.31305e-06
-7.0868e-06
-1.13171e-05
-1.46305e-05
-1.68318e-05
-1.69785e-05
-1.39126e-05
-1.0004e-05
-3.53536e-06
8.68768e-07
3.48508e-06
5.2308e-06
-6.49621e-07
-5.03162e-09
-4.85848e-09
-4.8096e-09
-5.50367e-09
-4.2115e-09
2.11676e-09
6.54142e-09
9.07339e-11
3.82728e-09
5.92297e-08
9.92426e-08
9.14948e-09
-1.23585e-07
6.22961e-08
5.98874e-07
6.02031e-07
-8.61081e-07
-1.78482e-06
-7.5511e-08
3.14731e-06
4.43174e-06
1.77046e-06
-3.65695e-06
-8.71721e-06
-1.10793e-05
-9.71767e-06
-4.78401e-06
2.41223e-06
1.03139e-05
1.76323e-05
2.37473e-05
2.83997e-05
3.16986e-05
3.38418e-05
3.47186e-05
3.44114e-05
3.24221e-05
2.85973e-05
2.29787e-05
1.50766e-05
6.242e-06
-3.26631e-06
-1.11854e-05
-1.55676e-05
-1.725e-05
-1.36275e-05
-9.76785e-06
-4.84479e-06
-7.63069e-07
-2.80736e-06
-6.19249e-09
-6.10017e-09
-5.55763e-09
-4.34688e-09
8.37442e-10
1.16809e-08
1.97862e-08
2.08961e-08
4.28755e-08
1.06234e-07
1.15814e-07
-8.89865e-09
-6.51523e-08
2.95943e-07
6.70622e-07
1.61989e-08
-1.7527e-06
-1.04968e-06
2.6322e-06
4.8379e-06
1.54128e-06
-5.49529e-06
-1.07556e-05
-1.01442e-05
-3.54595e-06
7.11552e-06
1.86529e-05
2.81988e-05
3.42927e-05
3.69394e-05
3.71974e-05
3.63329e-05
3.56746e-05
3.60815e-05
3.78096e-05
4.09201e-05
4.44048e-05
4.7403e-05
4.85267e-05
4.5928e-05
3.95859e-05
2.85433e-05
1.54188e-05
2.4414e-06
-8.99862e-06
-1.42634e-05
-1.7244e-05
-1.44257e-05
-1.10983e-05
-8.36692e-06
-6.62298e-09
-6.22613e-09
-3.66514e-09
1.96406e-09
1.38634e-08
3.18637e-08
4.63521e-08
5.66122e-08
9.00888e-08
1.42722e-07
1.05334e-07
-4.92459e-08
-2.3115e-08
3.76381e-07
3.45033e-07
-8.66419e-07
-2.16616e-06
7.68049e-07
4.6776e-06
2.51993e-06
-5.99455e-06
-1.20724e-05
-8.57364e-06
3.58872e-06
1.84831e-05
3.02233e-05
3.43291e-05
3.01521e-05
1.9757e-05
6.40106e-06
-6.84352e-06
-1.78503e-05
-2.50665e-05
-2.77517e-05
-2.5569e-05
-1.83559e-05
-6.94328e-06
7.99027e-06
2.42143e-05
3.86269e-05
4.88325e-05
5.10475e-05
4.59907e-05
3.38996e-05
1.72084e-05
2.37739e-06
-1.20147e-05
-1.7086e-05
-2.02741e-05
-1.58804e-05
-5.25969e-09
-3.40343e-09
3.8118e-09
1.70839e-08
3.82317e-08
6.40329e-08
8.23361e-08
9.23878e-08
1.1433e-07
1.20305e-07
7.74897e-10
-2.07401e-07
-1.64612e-07
8.06245e-08
-4.64567e-07
-1.90328e-06
-2.11138e-06
2.54535e-06
3.83435e-06
-4.23925e-06
-1.33681e-05
-9.17173e-06
7.87158e-06
2.55464e-05
3.29076e-05
2.52098e-05
4.05995e-06
-2.37402e-05
-5.1463e-05
-7.48069e-05
-9.23999e-05
-0.000104867
-0.000113202
-0.000118155
-0.00011924
-0.000115274
-0.000105244
-8.7508e-05
-6.25934e-05
-3.23471e-05
-2.88538e-07
2.70033e-05
4.63152e-05
5.25877e-05
4.58128e-05
3.11229e-05
8.80053e-06
-6.16402e-06
-2.05377e-05
-2.09434e-05
-5.03824e-10
5.06824e-09
2.01654e-08
4.34005e-08
7.28983e-08
9.98237e-08
1.06199e-07
8.61397e-08
4.76425e-08
-5.56173e-08
-3.19063e-07
-6.41955e-07
-6.97907e-07
-7.53629e-07
-1.74203e-06
-3.03567e-06
-1.9679e-06
3.00463e-06
-5.36683e-07
-1.22268e-05
-1.37382e-05
6.31195e-06
2.80428e-05
3.0246e-05
8.17021e-06
-2.9997e-05
-6.9111e-05
-9.69798e-05
-0.000109671
-0.000109958
-0.000103884
-9.75158e-05
-9.55063e-05
-0.000100736
-0.000112709
-0.000128449
-0.000143339
-0.000151211
-0.000147652
-0.000128945
-9.54508e-05
-5.28754e-05
-7.4685e-06
2.86726e-05
4.91622e-05
5.19614e-05
3.54158e-05
1.68072e-05
-7.27909e-06
-1.82744e-05
9.66857e-09
2.21016e-08
4.70026e-08
7.81519e-08
1.06135e-07
1.12311e-07
6.83393e-08
-4.08384e-08
-2.18413e-07
-5.15539e-07
-9.94233e-07
-1.49022e-06
-1.70745e-06
-2.03261e-06
-3.19271e-06
-3.96171e-06
-1.72891e-06
2.11936e-06
-6.23055e-06
-1.61646e-05
-3.96966e-06
2.61457e-05
2.96233e-05
-4.68721e-06
-5.59086e-05
-9.47817e-05
-0.000100637
-7.35773e-05
-2.63508e-05
2.5912e-05
7.12832e-05
0.000103164
0.000118586
0.000115388
9.27614e-05
5.1909e-05
-2.07149e-06
-6.05049e-05
-0.000113784
-0.00014973
-0.000159914
-0.000141499
-9.75116e-05
-4.33588e-05
7.73425e-06
4.12299e-05
4.83392e-05
4.01452e-05
1.61486e-05
-5.25275e-06
2.72321e-08
4.90959e-08
8.07516e-08
1.08063e-07
1.08475e-07
4.87812e-08
-1.12359e-07
-3.96333e-07
-8.03108e-07
-1.35816e-06
-2.05521e-06
-2.6469e-06
-2.836e-06
-3.02604e-06
-3.7156e-06
-3.31405e-06
1.47335e-07
2.41553e-06
-8.19612e-06
-1.13992e-05
1.32384e-05
3.6832e-05
-1.05929e-06
-6.59747e-05
-9.97217e-05
-7.01946e-05
1.3363e-05
0.000116354
0.000209811
0.000281472
0.0003314
0.00036435
0.000384604
0.000392824
0.000384618
0.000352345
0.000292002
0.000205232
9.97838e-05
-7.49333e-06
-9.77914e-05
-0.000152138
-0.000159762
-0.00012802
-6.95605e-05
-1.07078e-05
2.99646e-05
4.69572e-05
3.86231e-05
1.56183e-05
5.31433e-08
8.30557e-08
1.08379e-07
1.04292e-07
2.87089e-08
-1.6766e-07
-5.32865e-07
-1.07438e-06
-1.7485e-06
-2.49399e-06
-3.17148e-06
-3.39967e-06
-2.82101e-06
-1.79301e-06
-6.59631e-07
2.19933e-06
7.66685e-06
9.57211e-06
5.06097e-07
5.22281e-06
3.43409e-05
3.42216e-05
-4.91263e-05
-9.72386e-05
-4.04829e-05
9.53253e-05
0.000232422
0.000315824
0.000337807
0.000320654
0.000294871
0.000284625
0.000301543
0.00034602
0.000406725
0.00046189
0.000488481
0.000467694
0.000391539
0.000268334
0.000119151
-2.10632e-05
-0.000119806
-0.000160968
-0.000141118
-8.71799e-05
-2.2495e-05
2.50946e-05
4.58192e-05
3.68109e-05
8.5906e-08
1.13142e-07
1.04068e-07
2.09475e-08
-2.01318e-07
-6.18592e-07
-1.25872e-06
-2.06273e-06
-2.86138e-06
-3.40324e-06
-3.31769e-06
-2.02301e-06
9.36223e-07
5.2204e-06
1.04264e-05
1.77543e-05
2.68833e-05
3.09211e-05
2.62502e-05
3.61451e-05
6.16503e-05
3.17481e-05
-7.47949e-05
-4.06232e-05
0.000129632
0.000277898
0.00028845
0.000167404
-1.50672e-05
-0.000190409
-0.000320136
-0.000386225
-0.000379424
-0.000295986
-0.000143775
5.26747e-05
0.000255677
0.000420326
0.000508365
0.000498422
0.000392792
0.000226716
4.98531e-05
-8.86322e-05
-0.000152479
-0.000148662
-9.08292e-05
-2.43944e-05
2.85247e-05
4.87697e-05
1.19956e-07
1.18078e-07
2.93961e-08
-1.98879e-07
-6.47418e-07
-1.34634e-06
-2.24088e-06
-3.10573e-06
-3.51427e-06
-2.88528e-06
-5.18023e-07
4.38009e-06
1.22638e-05
2.25628e-05
3.43502e-05
4.78691e-05
6.17289e-05
6.90827e-05
6.84013e-05
7.94263e-05
9.85915e-05
4.79531e-05
-4.56428e-05
9.84961e-05
0.000282194
0.000210613
-9.67803e-05
-0.000471657
-0.000801822
-0.00103834
-0.00118444
-0.00126679
-0.00129395
-0.00124643
-0.00109925
-0.000844715
-0.000504649
-0.000131382
0.000207338
0.00044243
0.000527748
0.00046491
0.000295027
9.20145e-05
-6.86258e-05
-0.000152412
-0.000142655
-8.53224e-05
-1.22366e-05
4.42017e-05
1.44398e-07
6.63897e-08
-1.60612e-07
-6.06708e-07
-1.33723e-06
-2.28823e-06
-3.2116e-06
-3.56376e-06
-2.49498e-06
1.02842e-06
8.0306e-06
1.92962e-05
3.48104e-05
5.3054e-05
7.16732e-05
8.92252e-05
0.000103394
0.000108167
0.000104039
0.000109645
0.000122867
7.31344e-05
2.22912e-05
0.00022935
0.000249886
-0.000218283
-0.000761102
-0.00103672
-0.00109437
-0.00108621
-0.00109798
-0.00118262
-0.00135022
-0.00154372
-0.00166921
-0.00164284
-0.00142459
-0.00103068
-0.000529761
-3.41002e-05
0.000340768
0.000520466
0.000492093
0.000319987
0.000102413
-7.43309e-05
-0.000145918
-0.000132742
-6.48202e-05
2.13166e-05
1.42706e-07
-7.88161e-08
-5.04742e-07
-1.22258e-06
-2.21354e-06
-3.20632e-06
-3.59925e-06
-2.34854e-06
1.95262e-06
1.07642e-05
2.5103e-05
4.49865e-05
6.87126e-05
9.22461e-05
0.00011017
0.000118239
0.000113432
9.24555e-05
6.06402e-05
4.12559e-05
4.38177e-05
2.26171e-05
3.07609e-05
0.000233482
6.73412e-05
-0.000591208
-0.000832825
-0.000406504
0.00026333
0.000749571
0.000943383
0.000841082
0.000441608
-0.000182983
-0.000874974
-0.00145226
-0.00176926
-0.00174675
-0.00139455
-0.000824395
-0.000210059
0.000271697
0.000505519
0.00049071
0.000305894
7.60264e-05
-8.39682e-05
-0.000143191
-0.000110511
-1.62036e-05
9.37687e-08
-3.50159e-07
-1.0181e-06
-2.00492e-06
-3.09158e-06
-3.6441e-06
-2.52034e-06
1.96917e-06
1.17548e-05
2.83176e-05
5.16757e-05
7.93527e-05
0.000105535
0.000120869
0.000114315
7.73845e-05
7.05763e-06
-9.37514e-05
-0.000209083
-0.000301437
-0.000334882
-0.000315952
-0.000225344
2.53967e-05
3.81739e-05
-0.00023296
0.000466507
0.0018928
0.00321988
0.00399591
0.00430215
0.00425347
0.00379101
0.00287837
0.00163775
0.000303826
-0.000863005
-0.00163152
-0.00186719
-0.00159076
-0.000971721
-0.000273514
0.000260254
0.000506212
0.000463702
0.00025776
3.56987e-05
-0.000104835
-0.000133821
-5.89723e-05
-2.58534e-08
-7.63412e-07
-1.67533e-06
-2.8281e-06
-3.64295e-06
-2.94794e-06
1.09696e-06
1.08173e-05
2.82619e-05
5.38449e-05
8.45463e-05
0.0001123
0.000123262
9.87317e-05
1.90399e-05
-0.000129305
-0.000346888
-0.000618602
-0.000909271
-0.00115742
-0.00129137
-0.00126692
-0.00106014
-0.000602093
4.68369e-05
0.00071605
0.00217549
0.00379148
0.00482366
0.00532899
0.00577009
0.00627334
0.00650724
0.00611074
0.00499466
0.00332679
0.00143078
-0.000289151
-0.00146676
-0.00190437
-0.00164879
-0.000971922
-0.000223047
0.000315404
0.000506268
0.000416453
0.000186127
-2.10884e-05
-0.000123864
-9.89066e-05
-2.36377e-07
-1.30936e-06
-2.39833e-06
-3.4754e-06
-3.41943e-06
-3.69682e-07
8.24774e-06
2.50712e-05
5.12592e-05
8.41027e-05
0.000114195
0.000123338
8.46019e-05
-3.42165e-05
-0.000262772
-0.000616413
-0.00108515
-0.00163006
-0.00218577
-0.00266315
-0.00296382
-0.00301221
-0.00276827
-0.00220349
-0.00133749
-0.000512012
0.000197908
0.000499992
0.000215543
0.00018782
0.00121307
0.00321803
0.00539855
0.006898
0.00723883
0.00634672
0.00447425
0.00214256
-7.08381e-06
-0.00143641
-0.00191775
-0.00159133
-0.000830417
-6.62975e-05
0.000396125
0.00050024
0.00032982
9.20076e-05
-8.17634e-05
-0.000126848
-5.47497e-07
-1.95255e-06
-3.05901e-06
-3.6692e-06
-1.94404e-06
4.72802e-06
1.9463e-05
4.4426e-05
7.81084e-05
0.000111552
0.000124428
8.30304e-05
-5.73451e-05
-0.000343813
-0.000810969
-0.00146219
-0.00225459
-0.003099
-0.00387955
-0.00448284
-0.00482942
-0.00490908
-0.00480214
-0.00467585
-0.00478763
-0.00560264
-0.00735114
-0.00978864
-0.0121542
-0.0128603
-0.0109555
-0.00682191
-0.00174013
0.00293527
0.00623064
0.00761879
0.00704611
0.00497837
0.0022772
-0.000118556
-0.00156545
-0.00190231
-0.00139701
-0.000560796
0.000141413
0.000477777
0.00043131
0.000210937
-2.00022e-05
-0.000132742
-9.6392e-07
-2.63566e-06
-3.51042e-06
-3.14211e-06
1.15202e-06
1.2645e-05
3.44986e-05
6.70895e-05
0.00010371
0.000125185
9.52247e-05
-4.00975e-05
-0.000344795
-0.000874869
-0.00165112
-0.00262987
-0.00368492
-0.00461906
-0.00521718
-0.00533102
-0.00496492
-0.00433249
-0.0038619
-0.00413457
-0.00576454
-0.00923707
-0.0145307
-0.0207665
-0.0261873
-0.0286441
-0.0270384
-0.0218147
-0.014383
-0.00636884
0.000735323
0.00570587
0.00784248
0.00724814
0.00481376
0.00182885
-0.000567972
-0.00176385
-0.00177016
-0.0010602
-0.000212878
0.000345642
0.000468042
0.00031149
4.72185e-05
-0.00010857
-1.4869e-06
-3.29897e-06
-3.62426e-06
-1.70825e-06
6.01311e-06
2.31957e-05
5.22315e-05
8.99347e-05
0.000121375
0.000112977
8.17584e-06
-0.000269045
-0.000796851
-0.00162133
-0.00270937
-0.00390296
-0.0048988
-0.00528234
-0.00463667
-0.00271668
0.000364222
0.00401558
0.00719135
0.00858948
0.00699895
0.00175142
-0.0070073
-0.0179334
-0.0284419
-0.0357984
-0.0383106
-0.035746
-0.0289261
-0.0193244
-0.0089133
0.000119806
0.00601014
0.00807718
0.00691625
0.00399065
0.000913052
-0.00116475
-0.00185821
-0.00146499
-0.000603995
0.000126415
0.000435242
0.00037639
0.000113243
-4.95568e-05
-2.11998e-06
-3.90329e-06
-3.33753e-06
6.61972e-07
1.24717e-05
3.56721e-05
7.08356e-05
0.000109218
0.000124658
6.56909e-05
-0.00014667
-0.000607497
-0.00139455
-0.00250917
-0.00379926
-0.00488895
-0.00515504
-0.00379627
-2.62876e-05
0.00662212
0.0159597
0.0269078
0.0375121
0.0452927
0.0478691
0.0437348
0.0325716
0.0157869
-0.00336234
-0.0211319
-0.0342937
-0.0407991
-0.0399329
-0.0324983
-0.020875
-0.00846775
0.00146927
0.00700705
0.00803777
0.00591705
0.00260256
-0.000212279
-0.00165094
-0.00171372
-0.000972134
-0.00014116
0.00034382
0.000401369
0.000181396
4.27074e-05
-2.8726e-06
-4.44897e-06
-2.68581e-06
3.8043e-06
2.00457e-05
4.89746e-05
8.82369e-05
0.000121679
0.000109539
-1.94328e-05
-0.000365582
-0.00103429
-0.00207904
-0.00340761
-0.00466426
-0.00512559
-0.0036717
0.00109741
0.0105535
0.0255558
0.0459022
0.0699157
0.0943943
0.115076
0.127564
0.128513
0.116328
0.0920404
0.059601
0.0245222
-0.00723545
-0.0305661
-0.0422839
-0.0420327
-0.032504
-0.018496
-0.00508886
0.00413015
0.0079448
0.00727424
0.004213
0.000918738
-0.0012084
-0.00179208
-0.00127248
-0.000412928
0.000217469
0.000399236
0.000260062
0.000159233
-3.7561e-06
-4.97929e-06
-1.80949e-06
7.37015e-06
2.80127e-05
6.18486e-05
0.00010267
0.000125605
7.61129e-05
-0.00013662
-0.000629962
-0.00150648
-0.00276649
-0.00417061
-0.00507191
-0.00427088
1.98315e-05
0.0100016
0.0278384
0.0549446
0.0911597
0.134084
0.178902
0.218926
0.246869
0.256568
0.244431
0.210826
0.160599
0.101854
0.0443415
-0.00280364
-0.0332542
-0.0451423
-0.0413521
-0.0281133
-0.0124922
8.72239e-06
0.00675465
0.00792861
0.00552911
0.00204591
-0.000632198
-0.00172593
-0.00148149
-0.000650629
8.64845e-05
0.000391845
0.000348745
0.000280078
-4.76955e-06
-5.5585e-06
-9.2076e-07
1.08919e-05
3.55467e-05
7.31521e-05
0.000113132
0.000121455
2.90914e-05
-0.000272051
-0.000909907
-0.00197027
-0.00337423
-0.00469185
-0.00491928
-0.0022903
0.00576359
0.0223733
0.050619
0.0925592
0.148087
0.213965
0.283481
0.347066
0.39395
0.414558
0.402926
0.3587
0.287886
0.201731
0.114336
0.0392751
-0.0137512
-0.0412178
-0.0460674
-0.0358361
-0.0195116
-0.00455101
0.00485326
0.00795234
0.00645315
0.00302853
-2.92132e-05
-0.00156143
-0.00159263
-0.000824305
-1.74628e-05
0.000395944
0.000430385
0.000378771
-5.87579e-06
-6.22289e-06
-2.29091e-07
1.38969e-05
4.18806e-05
8.20609e-05
0.000119558
0.000111762
-2.3114e-05
-0.000406752
-0.00117106
-0.00237486
-0.00384607
-0.00494711
-0.00429898
0.000447499
0.0126523
0.0363767
0.0756062
0.13302
0.20853
0.298011
0.392793
0.480354
0.546391
0.577916
0.566677
0.511738
0.420416
0.307165
0.190293
0.0875372
0.0117016
-0.032128
-0.0468322
-0.0409889
-0.0252254
-0.00875482
0.00274635
0.00756039
0.00699657
0.00378421
0.000510158
-0.001351
-0.001615
-0.000920255
-8.02686e-05
0.000401287
0.000469418
0.000422947
-6.97665e-06
-6.91525e-06
1.64579e-07
1.60579e-05
4.64766e-05
8.81787e-05
0.000122683
0.000100385
-7.03898e-05
-0.000520709
-0.00138177
-0.00268285
-0.00416334
-0.00499785
-0.0034768
0.00325339
0.0192273
0.0492875
0.0981641
0.169024
0.261738
0.371371
0.487536
0.595187
0.677052
0.717348
0.706039
0.64186
0.533376
0.397748
0.256668
0.131115
0.0362691
-0.0215635
-0.0451386
-0.043733
-0.029164
-0.0119889
0.000922152
0.00702551
0.00724444
0.00428814
0.000927855
-0.00113823
-0.00156746
-0.00094604
-0.000116911
0.000372096
0.000429401
0.000386485
-7.90234e-06
-7.42965e-06
3.76373e-07
1.73516e-05
4.91879e-05
9.15742e-05
0.000123703
9.13853e-05
-0.000103322
-0.000596897
-0.00151821
-0.00287357
-0.00433869
-0.00495758
-0.00279612
0.00533549
0.0239131
0.0582789
0.113624
0.193388
0.297362
0.420018
0.549805
0.670019
0.761506
0.806792
0.794835
0.724333
0.604804
0.45516
0.299149
0.159604
0.0530198
-0.0136281
-0.0429991
-0.0447137
-0.0312307
-0.0138799
-0.000252602
0.00658548
0.00729537
0.00454426
0.0011865
-0.000966899
-0.00149089
-0.00094363
-0.000174723
0.000262578
0.000286584
0.000252262
-8.43229e-06
-7.40431e-06
8.02442e-07
1.81826e-05
5.04004e-05
9.28088e-05
0.000123945
8.80049e-05
-0.000115205
-0.00062406
-0.00156622
-0.00293901
-0.00439457
-0.00493076
-0.00253768
0.00608229
0.0255381
0.06131
0.118697
0.201172
0.308434
0.434705
0.568031
0.691199
0.784551
0.830255
0.817169
0.74421
0.621381
0.468159
0.30876
0.166285
0.0573084
-0.0112055
-0.0419352
-0.0445213
-0.0314805
-0.0142544
-0.000571519
0.00638874
0.00722046
0.00456245
0.00125893
-0.00088396
-0.00144252
-0.000971458
-0.000301594
4.93448e-05
4.19276e-05
1.98543e-05
-8.35478e-06
-6.39742e-06
2.07697e-06
1.93952e-05
5.10992e-05
9.2975e-05
0.000124707
9.20722e-05
-0.000103201
-0.00059814
-0.00152152
-0.00287847
-0.00434316
-0.00496062
-0.00280641
0.00528146
0.0237217
0.0577605
0.112453
0.19108
0.293272
0.413403
0.539929
0.656328
0.743832
0.785561
0.771123
0.699851
0.581698
0.435499
0.284389
0.150193
0.0483595
-0.0148477
-0.0422827
-0.0433214
-0.029972
-0.01312
-2.58696e-05
0.00644247
0.00701723
0.00432606
0.00111234
-0.000935563
-0.00147169
-0.00106616
-0.000507864
-0.000248567
-0.000275356
-0.000284656
-7.55095e-06
-4.04884e-06
4.88468e-06
2.20959e-05
5.27574e-05
9.3675e-05
0.000127285
0.00010402
-6.83464e-05
-0.000522068
-0.00138851
-0.00269493
-0.00417719
-0.00500921
-0.00349313
0.00318554
0.0189765
0.0485762
0.0965045
0.165673
0.2557
0.361471
0.472582
0.57422
0.649673
0.684071
0.668448
0.602651
0.496081
0.365902
0.232873
0.116274
0.02944
-0.0226354
-0.0431004
-0.0408066
-0.0267457
-0.0106539
0.00120166
0.00661823
0.00661742
0.00380568
0.000732223
-0.00113319
-0.00158447
-0.00121991
-0.000768036
-0.000594163
-0.000630919
-0.000634525
-6.06311e-06
-2.731e-07
9.65585e-06
2.72553e-05
5.69433e-05
9.67643e-05
0.00013299
0.000123248
-1.47895e-05
-0.000404681
-0.00117939
-0.00239583
-0.00387638
-0.00497782
-0.00432426
0.000406609
0.0125055
0.0359056
0.0744003
0.130428
0.203647
0.289728
0.379911
0.461793
0.521481
0.546784
0.530562
0.47319
0.383102
0.275056
0.166556
0.0734947
0.00646406
-0.0311449
-0.0427895
-0.0365484
-0.0219869
-0.00724714
0.0027588
0.00670294
0.00594912
0.00302617
0.000190964
-0.00138977
-0.00169279
-0.00134559
-0.000994613
-0.000900538
-0.00094546
-0.000942084
-4.09862e-06
4.62515e-06
1.62731e-05
3.52005e-05
6.46541e-05
0.000103718
0.000142823
0.000148399
5.11903e-05
-0.000259337
-0.000913747
-0.00199754
-0.00342567
-0.00475644
-0.00497373
-0.00230829
0.00578951
0.0223981
0.0505058
0.0920431
0.14675
0.211223
0.278587
0.339149
0.382147
0.398302
0.382411
0.33529
0.264124
0.180882
0.0993921
0.0318213
-0.0141901
-0.0368933
-0.0399385
-0.0304003
-0.0161406
-0.00346506
0.00421813
0.00648843
0.00499203
0.00207741
-0.000387064
-0.00159625
-0.00172263
-0.00140086
-0.00116322
-0.00114969
-0.00119758
-0.00120103
-1.94728e-06
1.00218e-05
2.39943e-05
4.52766e-05
7.56568e-05
0.000114768
0.000156737
0.000177187
0.000121969
-0.000102275
-0.000617392
-0.00152898
-0.00283345
-0.00427659
-0.00518512
-0.00432409
0.000134939
0.0104371
0.0287887
0.0566367
0.0938222
0.137875
0.18378
0.224498
0.25229
0.260641
0.246133
0.20987
0.157649
0.0985944
0.0428935
-0.000888893
-0.0278723
-0.0377231
-0.0340607
-0.0227711
-0.00989943
0.000107071
0.0052741
0.0059549
0.00392532
0.00122612
-0.000737305
-0.00153723
-0.00151165
-0.00125242
-0.0011414
-0.00119835
-0.00124956
-0.00124542
1.45853e-07
1.52328e-05
3.17197e-05
5.59869e-05
8.83072e-05
0.00012831
0.000172756
0.000205599
0.000188276
4.78243e-05
-0.000321656
-0.00103282
-0.00214131
-0.00354379
-0.00485347
-0.0052914
-0.00365319
0.00157901
0.0119273
0.0284185
0.0509923
0.0780101
0.106101
0.130543
0.146208
0.148916
0.136708
0.110792
0.0755709
0.0375478
0.00365466
-0.0206567
-0.032778
-0.033384
-0.0257989
-0.0146192
-0.00413011
0.00290038
0.00568656
0.00510638
0.00286768
0.000589037
-0.000814494
-0.0012523
-0.00115521
-0.00100963
-0.00102898
-0.00113907
-0.0011807
-0.00119848
2.0669e-06
1.98192e-05
3.85194e-05
6.57089e-05
0.00010029
0.000141468
0.000187293
0.000228076
0.000239502
0.000170439
-6.24244e-05
-0.000564236
-0.00142319
-0.0026409
-0.0040431
-0.00519848
-0.00538701
-0.00366374
0.000947872
0.00913592
0.0209166
0.035315
0.0502696
0.0628911
0.0700929
0.0694728
0.0601181
0.0431691
0.0217518
0.000152185
-0.0173409
-0.0276936
-0.0299339
-0.0252794
-0.0165291
-0.00700207
0.000567486
0.00476536
0.00564354
0.00431038
0.00222014
0.000506302
-0.000367786
-0.000553613
-0.00047882
-0.000474724
-0.000599877
-0.000734325
-0.000779091
-0.000781324
3.78884e-06
2.36786e-05
4.40176e-05
7.35032e-05
0.000109882
0.000151712
0.000197017
0.000239734
0.000266471
0.00024656
0.000123585
-0.000186328
-0.000776976
-0.00170954
-0.00295
-0.00430682
-0.00539951
-0.00568938
-0.00459244
-0.00167042
0.0031396
0.0093343
0.0157902
0.0209256
0.0230885
0.0210864
0.014658
0.00475397
-0.00657959
-0.0167711
-0.0234778
-0.0253361
-0.0223681
-0.0159168
-0.00811856
-0.00114079
0.00351821
0.00540048
0.00502343
0.00345985
0.00178775
0.000667089
0.000209711
0.00014585
0.000136128
1.61366e-05
-0.000166233
-0.000296635
-0.000327714
-0.000363671
5.30044e-06
2.69006e-05
4.83613e-05
7.9431e-05
0.000116881
0.000158571
0.000201518
0.000240373
0.000267615
0.000267795
0.000210582
4.29895e-05
-0.00030949
-0.000924752
-0.0018459
-0.00303332
-0.00432974
-0.005464
-0.00610971
-0.00599413
-0.00502922
-0.00341762
-0.00167885
-0.000554867
-0.000792617
-0.00285817
-0.00668608
-0.0115749
-0.0163146
-0.0195455
-0.0202121
-0.0179551
-0.0132607
-0.00730491
-0.00154059
0.00280165
0.00509919
0.00545653
0.00453234
0.00317561
0.00205305
0.00143749
0.00123122
0.00116843
0.00104671
0.000838617
0.000636363
0.000514941
0.000464344
0.00045511
6.37882e-06
2.93623e-05
5.16442e-05
8.38324e-05
0.000122006
0.000163424
0.000203819
0.000236488
0.000254528
0.000249143
0.000207595
0.000106932
-9.21538e-05
-0.000445908
-0.00101476
-0.00183559
-0.00288829
-0.00407609
-0.00523929
-0.00620801
-0.00687849
-0.00727902
-0.00758903
-0.00808861
-0.00904428
-0.0105661
-0.0124706
-0.0142984
-0.0154287
-0.0152609
-0.0134737
-0.010181
-0.00595114
-0.00163568
0.00191243
0.00412841
0.0049028
0.00456112
0.00367192
0.00278203
0.00220719
0.00197225
0.00190862
0.00182886
0.00165868
0.00144865
0.00128499
0.00119981
0.00116382
0.00113702
7.73436e-06
3.08439e-05
5.41188e-05
8.69444e-05
0.000125702
0.000167221
0.000206429
0.000235122
0.000244148
0.000223354
0.000163444
5.55796e-05
-0.000110672
-0.000351658
-0.000693045
-0.00116788
-0.0018061
-0.00261786
-0.00357982
-0.00463561
-0.00571518
-0.00676507
-0.00776967
-0.00874362
-0.0096889
-0.0105382
-0.011159
-0.0113171
-0.0107331
-0.00923828
-0.00685955
-0.00387975
-0.000778708
0.00190414
0.00375175
0.00460803
0.00461378
0.00411954
0.00351888
0.00308433
0.0028866
0.00282979
0.00276746
0.00261777
0.00240299
0.00220041
0.00206224
0.00198083
0.00192584
0.00190894
7.19726e-06
3.11761e-05
5.4221e-05
8.75555e-05
0.000126807
0.000168947
0.000208964