/*--------------------------------*- C++ -*----------------------------------*\
| =========                 |                                                 |
| \\      /  F ield         | OpenFOAM: The Open Source CFD Toolbox           |
|  \\    /   O peration     | Version:  dev                                   |
|   \\  /    A nd           | Web:      www.OpenFOAM.org                      |
|    \\/     M anipulation  |                                                 |
\*---------------------------------------------------------------------------*/
FoamFile
{
    version     2.0;
    format      ascii;
    class       volScalarField;
    location    "600.6";
    object      T;
}
// * * * * * * * * * * * * * * * * * * * * * * * * * * * * * * * * * * * * * //

dimensions      [0 0 0 0 0 0 0];

internalField   nonuniform List<scalar> 
2500
(
1.54746e-09
9.83181e-10
1.43672e-09
7.74674e-10
1.12292e-09
1.29884e-09
2.36916e-09
2.3057e-09
1.00774e-09
-4.36907e-10
1.07278e-09
6.03388e-09
1.04911e-08
9.0641e-09
4.17382e-10
-9.80438e-09
-1.40417e-08
-7.40184e-09
7.40932e-09
2.24922e-08
3.03212e-08
2.34984e-08
6.35865e-09
-2.26814e-08
-4.97388e-08
-7.47752e-08
-9.32172e-08
-9.24289e-08
-8.84072e-08
-4.44797e-08
-8.08585e-09
6.90374e-08
1.43435e-07
1.99644e-07
2.94842e-07
2.40539e-07
2.76603e-07
7.3926e-08
-1.01531e-07
-3.2377e-07
-8.11856e-07
-7.56393e-07
-1.27857e-06
-7.49669e-07
-4.62312e-07
1.93895e-07
2.04876e-06
1.91538e-06
4.45573e-06
2.91997e-06
1.90221e-10
-1.45942e-10
3.2424e-10
-6.83396e-10
3.20183e-10
6.87941e-10
1.56831e-09
-3.1821e-10
-2.48564e-09
-1.54979e-09
5.10102e-09
1.19739e-08
9.9239e-09
-3.3277e-09
-1.77077e-08
-1.82124e-08
5.42243e-10
2.99528e-08
5.13053e-08
4.93176e-08
2.01654e-08
-2.88621e-08
-8.09309e-08
-1.23799e-07
-1.43431e-07
-1.39115e-07
-1.04959e-07
-4.25159e-08
2.36393e-08
1.07394e-07
1.63565e-07
2.31489e-07
2.8307e-07
3.23921e-07
3.94977e-07
3.48458e-07
3.53703e-07
1.48175e-07
-5.05006e-08
-3.1194e-07
-7.67232e-07
-8.00683e-07
-1.23536e-06
-7.85839e-07
-4.66145e-07
2.62375e-07
1.93067e-06
2.05645e-06
4.32383e-06
2.76837e-06
-3.01877e-11
-1.77639e-10
8.11847e-11
-8.58677e-10
8.19069e-10
5.70506e-10
4.65895e-10
-2.71701e-09
-2.67032e-09
2.60728e-09
1.04061e-08
9.28679e-09
-5.4692e-09
-2.17651e-08
-1.94223e-08
8.39015e-09
4.40716e-08
5.98339e-08
3.62687e-08
-2.11366e-08
-8.73971e-08
-1.34728e-07
-1.39204e-07
-1.00165e-07
-2.037e-08
8.06043e-08
1.90486e-07
2.96594e-07
3.74928e-07
4.4724e-07
4.6835e-07
4.87003e-07
4.67479e-07
4.35546e-07
4.57142e-07
3.94074e-07
4.32256e-07
2.51881e-07
9.47736e-08
-1.44494e-07
-5.90279e-07
-5.89309e-07
-1.06312e-06
-5.8816e-07
-3.25729e-07
3.54543e-07
2.06482e-06
1.97293e-06
4.43792e-06
2.74739e-06
-3.74673e-10
-5.44968e-10
-4.24247e-10
-9.76907e-10
1.03381e-09
-2.92688e-10
-1.06068e-09
-4.13503e-09
1.23707e-11
7.64598e-09
1.04926e-08
-2.61758e-09
-2.19427e-08
-2.16103e-08
1.08808e-08
5.28997e-08
6.31028e-08
1.97867e-08
-6.07335e-08
-1.30947e-07
-1.4722e-07
-9.26368e-08
2.3119e-08
1.6121e-07
2.92456e-07
3.83994e-07
4.23987e-07
4.08245e-07
3.35194e-07
2.4447e-07
1.08785e-07
-6.73798e-09
-1.42539e-07
-2.65544e-07
-3.19857e-07
-4.08949e-07
-3.36529e-07
-4.37347e-07
-4.70474e-07
-5.96173e-07
-8.81242e-07
-7.28889e-07
-1.02712e-06
-3.83249e-07
-3.15897e-08
7.3612e-07
2.38481e-06
2.2029e-06
4.53038e-06
2.56549e-06
-5.47041e-10
-6.67727e-10
-6.56482e-10
-7.05128e-10
9.8846e-10
-1.60534e-09
-2.4889e-09
-3.91295e-09
4.78746e-09
9.88248e-09
1.97866e-09
-2.02242e-08
-2.73074e-08
5.27273e-09
5.58997e-08
6.73008e-08
6.54697e-09
-9.46182e-08
-1.62557e-07
-1.34096e-07
-6.22885e-09
1.73187e-07
3.35186e-07
4.13624e-07
3.92467e-07
2.63077e-07
5.25388e-08
-2.07193e-07
-4.81555e-07
-7.17962e-07
-9.41708e-07
-1.09662e-06
-1.2488e-06
-1.36928e-06
-1.43904e-06
-1.53965e-06
-1.46589e-06
-1.54587e-06
-1.52339e-06
-1.61855e-06
-1.81467e-06
-1.55416e-06
-1.66041e-06
-7.37213e-07
-1.53225e-07
9.30843e-07
2.67786e-06
2.54656e-06
4.81622e-06
2.44678e-06
-6.68054e-10
-7.87645e-10
-6.88257e-10
-2.3379e-10
6.05144e-10
-2.71651e-09
-2.63039e-09
-9.72222e-10
1.00132e-08
5.90575e-09
-1.27857e-08
-3.0008e-08
-5.65743e-09
5.32484e-08
7.57335e-08
5.27484e-09
-1.19097e-07
-1.85451e-07
-1.09523e-07
9.31924e-08
3.13527e-07
4.34269e-07
3.81343e-07
1.53212e-07
-1.81291e-07
-5.66367e-07
-9.16642e-07
-1.18483e-06
-1.34163e-06
-1.37117e-06
-1.33126e-06
-1.20334e-06
-1.10141e-06
-1.01142e-06
-9.64825e-07
-1.02603e-06
-9.89774e-07
-1.16313e-06
-1.264e-06
-1.58069e-06
-2.00467e-06
-2.00094e-06
-2.28147e-06
-1.369e-06
-7.6174e-07
5.94945e-07
2.4908e-06
2.55191e-06
4.94345e-06
2.27799e-06
-7.95204e-10
-8.76114e-10
-6.04474e-10
-1.70103e-11
-3.5403e-10
-3.57269e-09
-1.82215e-09
2.84528e-09
1.10506e-08
-6.15442e-09
-2.60698e-08
-2.02077e-08
3.74943e-08
8.24753e-08
2.03603e-08
-1.26709e-07
-2.05939e-07
-8.98255e-08
1.82042e-07
4.24782e-07
4.518e-07
2.05114e-07
-2.44646e-07
-7.32726e-07
-1.10772e-06
-1.29142e-06
-1.21665e-06
-9.17896e-07
-4.50495e-07
1.09258e-07
6.59046e-07
1.2008e-06
1.61819e-06
1.95341e-06
2.14788e-06
2.16813e-06
2.20543e-06
1.97239e-06
1.76258e-06
1.17747e-06
3.81619e-07
-1.70453e-07
-1.06543e-06
-7.11741e-07
-6.88223e-07
4.09799e-07
2.00682e-06
2.06232e-06
4.48124e-06
1.72031e-06
-9.99614e-10
-1.01177e-09
-5.46319e-10
-1.19661e-10
-1.40132e-09
-3.61518e-09
6.58309e-11
6.19727e-09
6.17243e-09
-2.10335e-08
-2.63373e-08
1.10031e-08
7.60796e-08
5.14132e-08
-1.06631e-07
-2.26008e-07
-1.01156e-07
2.35332e-07
5.01019e-07
4.20612e-07
-3.97201e-08
-6.66049e-07
-1.15582e-06
-1.26894e-06
-9.59663e-07
-2.90269e-07
6.30608e-07
1.6111e-06
2.52413e-06
3.27347e-06
3.80971e-06
4.20475e-06
4.42904e-06
4.62433e-06
4.75065e-06
4.83112e-06
5.02831e-06
5.06941e-06
5.23498e-06
4.96101e-06
4.40171e-06
3.79135e-06
2.59577e-06
2.42127e-06
1.57011e-06
1.89193e-06
2.43271e-06
1.85073e-06
3.67016e-06
5.88212e-07
-1.34871e-09
-1.25685e-09
-6.8102e-10
-6.68477e-10
-2.49826e-09
-3.22829e-09
1.93944e-09
6.58981e-09
-4.54574e-09
-3.11079e-08
-8.88762e-09
4.85019e-08
7.61993e-08
-4.7831e-08
-2.27079e-07
-1.5337e-07
2.31738e-07
5.59693e-07
4.04584e-07
-2.56342e-07
-1.01324e-06
-1.35863e-06
-1.0073e-06
-3.19966e-08
1.24714e-06
2.51949e-06
3.49785e-06
3.98585e-06
3.98645e-06
3.57981e-06
2.91851e-06
2.20732e-06
1.51923e-06
1.07813e-06
8.47489e-07
9.05956e-07
1.37599e-06
2.03152e-06
3.16737e-06
4.07758e-06
4.90824e-06
5.55966e-06
5.46218e-06
6.02361e-06
5.23691e-06
5.29854e-06
4.68371e-06
3.03989e-06
3.53343e-06
-6.98323e-07
-1.90396e-09
-1.71232e-09
-1.15634e-09
-1.63164e-09
-3.52583e-09
-2.62973e-09
3.05332e-09
3.28424e-09
-1.65478e-08
-2.87495e-08
2.14128e-08
7.02794e-08
2.38377e-08
-1.66909e-07
-2.25173e-07
1.42939e-07
5.91695e-07
4.65946e-07
-3.62125e-07
-1.25072e-06
-1.3984e-06
-4.91373e-07
1.12375e-06
2.71379e-06
3.68881e-06
3.75286e-06
2.8307e-06
1.12378e-06
-9.94138e-07
-3.20873e-06
-5.24349e-06
-6.93078e-06
-8.2778e-06
-9.15431e-06
-9.70361e-06
-9.83038e-06
-9.4519e-06
-8.64974e-06
-6.98976e-06
-5.12694e-06
-2.72629e-06
-1.37418e-07
2.12133e-06
5.09686e-06
6.28405e-06
7.90566e-06
7.47053e-06
5.47712e-06
4.76225e-06
-1.34388e-06
-2.7028e-09
-2.45014e-09
-2.04701e-09
-2.96479e-09
-4.48326e-09
-2.02402e-09
3.09438e-09
-2.09367e-09
-2.30218e-08
-1.12145e-08
5.36566e-08
6.447e-08
-5.82701e-08
-2.21055e-07
-3.31405e-08
5.37539e-07
6.23239e-07
-2.67357e-07
-1.37293e-06
-1.42212e-06
7.10795e-09
2.15159e-06
3.67866e-06
3.65335e-06
2.01341e-06
-8.58231e-07
-4.29411e-06
-7.56422e-06
-1.01407e-05
-1.18846e-05
-1.28387e-05
-1.32484e-05
-1.34511e-05
-1.35854e-05
-1.39828e-05
-1.45595e-05
-1.52807e-05
-1.60046e-05
-1.60627e-05
-1.58073e-05
-1.43695e-05
-1.19906e-05
-8.68526e-06
-3.62145e-06
3.4493e-07
5.17276e-06
7.00774e-06
6.64058e-06
6.20582e-06
-1.1401e-06
-3.72291e-09
-3.4902e-09
-3.31782e-09
-4.40952e-09
-4.93981e-09
-7.72191e-10
3.50097e-09
-4.85222e-09
-1.73177e-08
1.96195e-08
8.0226e-08
3.81964e-08
-1.22616e-07
-1.44747e-07
2.97536e-07
7.70109e-07
9.21476e-08
-1.30268e-06
-1.57207e-06
2.27589e-07
2.86891e-06
4.16748e-06
2.77643e-06
-8.62935e-07
-5.33151e-06
-9.26955e-06
-1.1532e-05
-1.16899e-05
-9.95963e-06
-7.03617e-06
-3.61077e-06
-3.80215e-07
2.14228e-06
3.71327e-06
3.95226e-06
2.94871e-06
5.89803e-07
-2.89347e-06
-6.82513e-06
-1.1332e-05
-1.49529e-05
-1.75328e-05
-1.79224e-05
-1.49687e-05
-1.10706e-05
-4.31792e-06
1.57735e-07
3.07867e-06
4.8251e-06
-1.26376e-06
-4.82989e-09
-4.70216e-09
-4.61747e-09
-5.17021e-09
-3.6177e-09
3.13286e-09
7.96534e-09
1.49205e-09
4.88555e-09
6.06251e-08
1.01359e-07
1.01171e-08
-1.27339e-07
5.79912e-08
6.01472e-07
6.1168e-07
-8.63884e-07
-1.81283e-06
-1.0566e-07
3.15853e-06
4.49712e-06
1.84634e-06
-3.64264e-06
-8.81174e-06
-1.12777e-05
-9.96163e-06
-4.98024e-06
2.35824e-06
1.04698e-05
1.80294e-05
2.43879e-05
2.92635e-05
3.27648e-05
3.50884e-05
3.61257e-05
3.59718e-05
3.40993e-05
3.03642e-05
2.47416e-05
1.66774e-05
7.54551e-06
-2.48263e-06
-1.09261e-05
-1.5877e-05
-1.8065e-05
-1.46527e-05
-1.11045e-05
-5.97174e-06
-1.95357e-06
-3.79134e-06
-5.69125e-09
-5.63687e-09
-4.98069e-09
-3.50428e-09
2.04682e-09
1.32991e-08
2.1559e-08
2.21618e-08
4.3232e-08
1.06198e-07
1.15107e-07
-1.2875e-08
-7.44614e-08
2.87786e-07
6.69792e-07
1.62339e-08
-1.77505e-06
-1.09113e-06
2.61776e-06
4.88617e-06
1.61514e-06
-5.48484e-06
-1.0867e-05
-1.03506e-05
-3.74867e-06
7.04532e-06
1.88184e-05
2.86383e-05
3.49764e-05
3.77945e-05
3.81412e-05
3.72966e-05
3.66296e-05
3.70332e-05
3.88058e-05
4.20481e-05
4.57513e-05
4.90843e-05
5.05707e-05
4.8282e-05
4.21245e-05
3.0961e-05
1.75376e-05
3.9075e-06
-8.36773e-06
-1.44239e-05
-1.83745e-05
-1.58009e-05
-1.29555e-05
-9.80906e-06
-5.6627e-09
-5.2715e-09
-2.51143e-09
3.42901e-09
1.55768e-08
3.35654e-08
4.73743e-08
5.59184e-08
8.70638e-08
1.37593e-07
9.72787e-08
-6.28694e-08
-4.23123e-08
3.5959e-07
3.34469e-07
-8.83458e-07
-2.21035e-06
7.22336e-07
4.68874e-06
2.5865e-06
-5.9708e-06
-1.21818e-05
-8.78666e-06
3.41309e-06
1.85056e-05
3.0538e-05
3.49088e-05
3.08632e-05
2.04174e-05
6.84275e-06
-6.73864e-06
-1.81393e-05
-2.57426e-05
-2.87666e-05
-2.68203e-05
-1.96931e-05
-8.17514e-06
7.13764e-06
2.39714e-05
3.92091e-05
5.03415e-05
5.33493e-05
4.89218e-05
3.6878e-05
1.97331e-05
3.99597e-06
-1.18389e-05
-1.77475e-05
-2.2099e-05
-1.75235e-05
-3.66938e-09
-1.78927e-09
5.59187e-09
1.89113e-08
3.96429e-08
6.42257e-08
8.00493e-08
8.61448e-08
1.03365e-07
1.04809e-07
-1.9957e-08
-2.35024e-07
-1.96565e-07
5.33482e-08
-4.86124e-07
-1.93653e-06
-2.16827e-06
2.51172e-06
3.87436e-06
-4.18817e-06
-1.34444e-05
-9.3897e-06
7.68455e-06
2.56027e-05
3.32941e-05
2.58215e-05
4.63936e-06
-2.34795e-05
-5.1734e-05
-7.57082e-05
-9.39349e-05
-0.000106986
-0.000115844
-0.000121279
-0.000122809
-0.000119245
-0.000109518
-9.1848e-05
-6.66927e-05
-3.57321e-05
-2.49096e-06
2.63323e-05
4.74107e-05
5.50352e-05
4.90649e-05
3.42555e-05
1.08004e-05
-5.23362e-06
-2.1303e-05
-2.21425e-05
1.83748e-09
7.34629e-09
2.21993e-08
4.45508e-08
7.20189e-08
9.53784e-08
9.63453e-08
6.92761e-08
2.35135e-08
-8.57755e-08
-3.54306e-07
-6.81335e-07
-7.35487e-07
-7.79429e-07
-1.75796e-06
-3.06185e-06
-2.0047e-06
3.01533e-06
-4.58676e-07
-1.2212e-05
-1.39116e-05
6.08992e-06
2.80668e-05
3.06428e-05
8.7667e-06
-2.95826e-05
-6.92535e-05
-9.78625e-05
-0.000111252
-0.000112047
-0.000106254
-9.99906e-05
-9.80177e-05
-0.000103346
-0.000115579
-0.000131839
-0.000147501
-0.000156286
-0.00015362
-0.000135397
-0.000101732
-5.80854e-05
-1.0666e-05
2.77868e-05
5.0605e-05
5.48011e-05
3.84703e-05
1.9389e-05
-6.23333e-06
-1.82376e-05
1.27177e-08
2.46266e-08
4.81227e-08
7.6395e-08
9.94968e-08
9.86414e-08
4.58245e-08
-7.26977e-08
-2.57502e-07
-5.57146e-07
-1.03305e-06
-1.52039e-06
-1.71867e-06
-2.01414e-06
-3.15001e-06
-3.91676e-06
-1.67392e-06
2.23778e-06
-6.0747e-06
-1.61546e-05
-4.15098e-06
2.60961e-05
2.99861e-05
-4.09223e-06
-5.55955e-05
-9.52219e-05
-0.000101938
-7.54469e-05
-2.82899e-05
2.43962e-05
7.05377e-05
0.000103346
0.000119665
0.000117172
9.49202e-05
5.39329e-05
-8.11932e-07
-6.07159e-05
-0.000116103
-0.000154366
-0.00016661
-0.000149251
-0.000104848
-4.89955e-05
4.98435e-06
4.12001e-05
5.04561e-05
4.32498e-05
1.88795e-05
-3.47081e-06
3.06119e-08
5.06951e-08
7.86687e-08
9.98373e-08
9.14849e-08
2.11747e-08
-1.50539e-07
-4.41662e-07
-8.4747e-07
-1.38934e-06
-2.0599e-06
-2.61207e-06
-2.74716e-06
-2.87367e-06
-3.5113e-06
-3.0845e-06
4.08792e-07
2.74342e-06
-7.87519e-06
-1.12915e-05
1.32143e-05
3.71261e-05
-3.99143e-07
-6.55817e-05
-0.000100246
-7.1702e-05
1.14876e-05
0.000114999
0.000209705
0.000282998
0.000334632
0.00036919
0.00039089
0.000400387
0.000393265
0.000361743
0.000301578
0.000214012
0.000106494
-4.06583e-06
-9.85199e-05
-0.000156852
-0.000167333
-0.000136631
-7.67967e-05
-1.53444e-05
2.88975e-05
4.86104e-05
4.18624e-05
1.89878e-05
5.59409e-08
8.1507e-08
9.9657e-08
8.5232e-08
-2.76759e-09
-2.10757e-07
-5.81947e-07
-1.1172e-06
-1.76553e-06
-2.46077e-06
-3.06398e-06
-3.19846e-06
-2.5122e-06
-1.37569e-06
-1.59379e-07
2.74329e-06
8.24977e-06
1.02058e-05
1.08437e-06
5.55321e-06
3.46345e-05
3.49293e-05
-4.8379e-05
-9.74532e-05
-4.19058e-05
9.36095e-05
0.000231808
0.000317267
0.000341495
0.000326181
0.000301633
0.00029217
0.000309729
0.00035503
0.000416972
0.00047384
0.000502384
0.000483137
0.00040729
0.000282426
0.000129267
-1.65285e-05
-0.000121398
-0.000167587
-0.000150024
-9.58268e-05
-2.78559e-05
2.34412e-05
4.77379e-05
4.08415e-05
8.64979e-08
1.05134e-07
8.47136e-08
-1.2522e-08
-2.47725e-07
-6.70081e-07
-1.2981e-06
-2.06234e-06
-2.7848e-06
-3.21147e-06
-2.97925e-06
-1.52229e-06
1.59599e-06
6.01227e-06
1.12936e-05
1.86332e-05
2.77541e-05
3.17878e-05
2.70131e-05
3.66721e-05
6.22488e-05
3.2755e-05
-7.42027e-05
-4.1471e-05
0.000128151
0.000277804
0.000291072
0.000172535
-8.63813e-06
-0.000184111
-0.000315054
-0.000382819
-0.000377501
-0.000294809
-0.000142165
5.62626e-05
0.000262882
0.000432253
0.000525027
0.000518204
0.000412581
0.000242923
5.92117e-05
-8.73292e-05
-0.000157908
-0.000158008
-9.94489e-05
-3.00178e-05
2.75043e-05
5.2018e-05
1.15951e-07
9.96715e-08
-3.70224e-09
-2.46701e-07
-7.00717e-07
-1.38362e-06
-2.22596e-06
-2.98957e-06
-3.24239e-06
-2.41154e-06
1.77806e-07
5.27924e-06
1.3307e-05
2.36559e-05
3.53755e-05
4.87262e-05
6.23961e-05
6.96029e-05
6.87626e-05
7.96311e-05
9.90267e-05
4.88495e-05
-4.53672e-05
9.74944e-05
0.000281974
0.000213409
-9.13989e-05
-0.000466165
-0.000798701
-0.00103908
-0.00118956
-0.00127611
-0.00130677
-0.00126173
-0.00111567
-0.000860269
-0.000516596
-0.000136692
0.000211077
0.000455654
0.000548301
0.000488323
0.000315416
0.000104819
-6.54214e-05
-0.000157534
-0.00015138
-9.37785e-05
-1.68293e-05
4.52296e-05
1.32797e-07
3.41528e-08
-2.07396e-07
-6.61404e-07
-1.37555e-06
-2.26725e-06
-3.06997e-06
-3.23093e-06
-1.91001e-06
1.89039e-06
9.13068e-06
2.05166e-05
3.59637e-05
5.39144e-05
7.20227e-05
8.89252e-05
0.000102465
0.000106785
0.000102419
0.000108046
0.000121837
7.29778e-05
2.19889e-05
0.000228666
0.000251331
-0.000213956
-0.000757464
-0.00103828
-0.0011031
-0.00110148
-0.00111843
-0.0012072
-0.00137827
-0.00157495
-0.00170343
-0.00167915
-0.00146054
-0.00106199
-0.00055127
-4.17442e-05
0.000348188
0.000540038
0.000517113
0.000342891
0.000116735
-7.07348e-05
-0.00015054
-0.000141306
-7.21917e-05
1.91907e-05
1.2033e-07
-1.26044e-07
-5.59253e-07
-1.26545e-06
-2.19729e-06
-3.06031e-06
-3.23714e-06
-1.6925e-06
2.93385e-06
1.20104e-05
2.64254e-05
4.606e-05
6.91151e-05
9.15414e-05
0.000108014
0.000114491
0.000108257
8.63143e-05
5.41476e-05
3.51079e-05
3.88969e-05
1.95829e-05
2.89955e-05
0.000232739
6.90129e-05
-0.000589065
-0.000836039
-0.000419333
0.000241837
0.000723578
0.000916267
0.000813817
0.000413444
-0.000213809
-0.000910857
-0.00149519
-0.00181911
-0.00179982
-0.00144379
-0.000861528
-0.000228442
0.00027381
0.000523869
0.000516838
0.00032943
9.0313e-05
-8.08737e-05
-0.000148448
-0.000118684
-2.15654e-05
5.79545e-08
-4.09252e-07
-1.0661e-06
-2.00375e-06
-2.96355e-06
-3.29064e-06
-1.84419e-06
3.01402e-06
1.30968e-05
2.97011e-05
5.26227e-05
7.91863e-05
0.000103485
0.000116244
0.000106695
6.67767e-05
-6.02894e-06
-0.000108372
-0.000224068
-0.00031556
-0.000346823
-0.000324524
-0.000230416
2.32757e-05
3.85638e-05
-0.000234099
0.000458467
0.00187686
0.00320141
0.00398181
0.00429558
0.00425312
0.00379332
0.00287889
0.00163099
0.000283786
-0.000900479
-0.00168585
-0.00193172
-0.00165399
-0.00102076
-0.000299271
0.000259814
0.000525247
0.000490328
0.000281135
4.80704e-05
-0.000103902
-0.000140336
-6.67538e-05
-7.6411e-08
-8.25378e-07
-1.69329e-06
-2.73799e-06
-3.33473e-06
-2.30671e-06
2.14329e-06
1.22096e-05
2.97081e-05
5.47372e-05
8.39471e-05
0.000109043
0.000116182
8.69869e-05
2.40402e-06
-0.000150288
-0.000370967
-0.0006441
-0.000934489
-0.00118089
-0.00131176
-0.00128282
-0.0010705
-0.000606871
4.67274e-05
0.000717562
0.00217636
0.00379503
0.00483848
0.0053615
0.00581971
0.00633435
0.00657313
0.00617562
0.00505123
0.0033653
0.00144138
-0.000311858
-0.00151996
-0.0019762
-0.00172143
-0.00102777
-0.00025059
0.000316955
0.000527415
0.000443996
0.00020666
-1.25446e-05
-0.000126484
-0.000107697
-3.00472e-07
-1.35916e-06
-2.35456e-06
-3.24404e-06
-2.86493e-06
6.10242e-07
9.63593e-06
2.65926e-05
5.22448e-05
8.34125e-05
0.000110281
0.000114505
6.94594e-05
-5.62198e-05
-0.000290954
-0.000648829
-0.00111904
-0.00166269
-0.00221528
-0.002689
-0.00298628
-0.00303132
-0.00278297
-0.00221195
-0.00133798
-0.000503621
0.000218062
0.000539355
0.000282627
0.000284954
0.0013337
0.00335222
0.00553915
0.0070409
0.00737781
0.00646963
0.00456476
0.00218645
-1.5114e-05
-0.00148879
-0.00199525
-0.00166903
-0.000886102
-8.91428e-05
0.000403365
0.000524995
0.000354987
0.00010772
-7.93524e-05
-0.000134666
-6.2097e-07
-1.97018e-06
-2.91775e-06
-3.24661e-06
-1.0981e-06
6.03795e-06
2.10389e-05
4.56375e-05
7.77376e-05
0.000107773
0.00011504
6.60071e-05
-8.30427e-05
-0.000377407
-0.000849412
-0.00150049
-0.0022871
-0.00312137
-0.00389057
-0.00448529
-0.00482896
-0.00491143
-0.00480996
-0.00468716
-0.00479649
-0.0056012
-0.00732942
-0.00973532
-0.0120624
-0.0127328
-0.0108034
-0.00665538
-0.00156181
0.00312807
0.00643655
0.00782505
0.00722939
0.00511277
0.00234457
-0.00012077
-0.00162204
-0.00198482
-0.00147379
-0.00060917
0.000128921
0.000492783
0.000456254
0.000231691
-1.26135e-05
-0.000137371
-1.04004e-06
-2.59849e-06
-3.23813e-06
-2.49194e-06
2.29652e-06
1.41962e-05
3.59673e-05
6.73426e-05
0.000100835
0.000116612
7.82704e-05
-6.72022e-05
-0.000381557
-0.000917303
-0.00169133
-0.0026571
-0.00368832
-0.00459163
-0.00515954
-0.00525305
-0.00488383
-0.00426747
-0.00382708
-0.00413383
-0.00579051
-0.00927451
-0.0145612
-0.0207734
-0.0261626
-0.0285911
-0.0269658
-0.0217249
-0.0142659
-0.00620864
0.000946152
0.0059558
0.00810076
0.00747451
0.0049724
0.00190083
-0.000578148
-0.00183001
-0.00185484
-0.0011293
-0.000246937
0.000345811
0.000487954
0.000334167
5.88938e-05
-0.000107988
-1.55649e-06
-3.18505e-06
-3.196e-06
-8.17508e-07
7.41487e-06
2.48164e-05
5.31796e-05
8.84499e-05
0.000114778
9.80608e-05
-1.77523e-05
-0.000306425
-0.000841762
-0.00166376
-0.00273298
-0.00388731
-0.00482448
-0.00513806
-0.004426
-0.00246134
0.000627041
0.00424219
0.00734414
0.00864788
0.00696391
0.00164164
-0.007165
-0.0181134
-0.0286276
-0.0359832
-0.0384883
-0.0358992
-0.0290223
-0.0193278
-0.0088033
0.000334874
0.00629204
0.00836921
0.00716083
0.00414664
0.000967348
-0.00119515
-0.00193521
-0.00154576
-0.000657362
0.000109685
0.000446542
0.00039791
0.000128562
-4.24239e-05
-2.17161e-06
-3.69387e-06
-2.74153e-06
1.77855e-06
1.40431e-05
3.71298e-05
7.0795e-05
0.000105223
0.000113306
4.34395e-05
-0.000181734
-0.000652955
-0.00144055
-0.00253612
-0.00377791
-0.00478439
-0.00493513
-0.00344315
0.000452602
0.00718811
0.0165462
0.0274334
0.0379008
0.0454925
0.0478626
0.0435366
0.0322157
0.0153135
-0.00391686
-0.0217365
-0.0349126
-0.0413819
-0.0404154
-0.0328183
-0.020995
-0.00839073
0.00169844
0.00731451
0.00834165
0.00614961
0.00272727
-0.000194054
-0.00170636
-0.00179557
-0.00103938
-0.000173669
0.000344866
0.000419704
0.000200012
5.65754e-05
-2.89193e-06
-4.1291e-06
-1.9238e-06
5.10798e-06
2.16694e-05
5.002e-05
8.67779e-05
0.000114572
9.28211e-05
-4.91601e-05
-0.00040845
-0.00108325
-0.00211559
-0.00339882
-0.00456339
-0.00487843
-0.00322921
0.00176204
0.0114282
0.0265803
0.0469712
0.0708974
0.0951588
0.115524
0.127647
0.128234
0.115727
0.09118
0.0585487
0.0233481
-0.00845266
-0.0317332
-0.0432985
-0.0428028
-0.0329726
-0.0186583
-0.00499447
0.00439158
0.00826707
0.00756128
0.00440137
0.000989389
-0.00123316
-0.00186544
-0.00134656
-0.000457639
0.000208727
0.000413842
0.00028146
0.0001785
-3.72455e-06
-4.53555e-06
-8.91904e-07
8.81024e-06
2.95695e-05
6.22725e-05
9.94993e-05
0.000115096
5.39979e-05
-0.000173043
-0.00067804
-0.00155293
-0.00278182
-0.0041055
-0.00485859
-0.00383219
0.000752898
0.0110664
0.0292176
0.0565523
0.0928451
0.135655
0.180162
0.219719
0.247105
0.256233
0.243573
0.209535
0.158987
0.100039
0.0424527
-0.00462705
-0.0348718
-0.0464331
-0.0422395
-0.0285834
-0.0125959
0.000169391
0.00705221
0.00824043
0.00576481
0.00216412
-0.000623247
-0.00178404
-0.00155544
-0.000702652
7.01327e-05
0.000403145
0.000371404
0.000301833
-4.66236e-06
-4.97427e-06
1.42508e-07
1.24237e-05
3.69484e-05
7.284e-05
0.00010817
0.000107645
2.14391e-06
-0.000313669
-0.000960042
-0.00200842
-0.00335872
-0.00455562
-0.00457217
-0.00163106
0.00682464
0.0238841
0.0525559
0.094809
0.15045
0.216185
0.285293
0.34825
0.394373
0.414189
0.401828
0.356998
0.285737
0.199308
0.111816
0.0368372
-0.0159363
-0.0430068
-0.0473679
-0.0366247
-0.0198373
-0.00452252
0.00509328
0.00826027
0.00671555
0.00318317
1.08337e-05
-0.00160114
-0.00166093
-0.000878721
-3.86585e-05
0.000403999
0.000451235
0.000398849
-5.66089e-06
-5.47291e-06
9.81413e-07
1.55008e-05
4.30995e-05
8.10313e-05
0.000112974
9.51445e-05
-5.38494e-05
-0.000451725
-0.00122046
-0.00240105
-0.00379566
-0.00473641
-0.00381719
0.00132346
0.0140303
0.0383133
0.0780708
0.135873
0.211525
0.300833
0.395112
0.481896
0.546987
0.577526
0.565382
0.5097
0.417842
0.304272
0.187297
0.0846416
0.00909353
-0.0342948
-0.048457
-0.0420406
-0.0257481
-0.00885766
0.00291444
0.00784362
0.00726582
0.00396115
0.000574556
-0.00137273
-0.00167445
-0.000973366
-0.000104431
0.00040474
0.000484252
0.000436748
-6.61568e-06
-5.96291e-06
1.54334e-06
1.77525e-05
4.75623e-05
8.6596e-05
0.000114888
8.17764e-05
-0.000103575
-0.000567264
-0.00142876
-0.0026968
-0.00408161
-0.00472387
-0.00288417
0.00430378
0.0208562
0.051556
0.101034
0.172334
0.265206
0.374634
0.490219
0.596975
0.677756
0.716932
0.704605
0.639607
0.530551
0.394601
0.253435
0.128004
0.0334647
-0.0239126
-0.0469332
-0.0449382
-0.0298171
-0.0121922
0.00102323
0.00727375
0.00750472
0.00447307
0.00100748
-0.00114543
-0.00161769
-0.000996468
-0.000144111
0.000368201
0.00043403
0.00038991
-7.35512e-06
-6.23012e-06
1.9639e-06
1.91958e-05
5.02653e-05
8.97315e-05
0.000115299
7.18226e-05
-0.000137507
-0.000643585
-0.00156251
-0.00287862
-0.00423667
-0.00464506
-0.00213881
0.00648418
0.0256789
0.0607231
0.116701
0.196923
0.30105
0.423472
0.552627
0.67188
0.762217
0.806329
0.793327
0.72201
0.601936
0.452012
0.295953
0.156554
0.0502779
-0.0159335
-0.0447802
-0.0459368
-0.0319248
-0.0141343
-0.000199953
0.00679752
0.0075358
0.00472443
0.00127145
-0.000965138
-0.00153406
-0.00099225
-0.000206389
0.00024875
0.000278392
0.00024289
-7.6646e-06
-5.91531e-06
2.64721e-06
2.02591e-05
5.16438e-05
9.10808e-05
0.000115643
6.86277e-05
-0.000148946
-0.000669775
-0.00160868
-0.002941
-0.00428814
-0.00461285
-0.00187519
0.00723364
0.0273004
0.0637398
0.121744
0.204656
0.312047
0.438062
0.570739
0.692942
0.785157
0.829724
0.815653
0.741957
0.61867
0.465247
0.305856
0.163549
0.0548641
-0.0132612
-0.0435343
-0.0456348
-0.0321287
-0.014509
-0.000544447
0.00656821
0.00743408
0.00472736
0.00133967
-0.000879793
-0.00148228
-0.00102012
-0.000338895
2.47509e-05
2.07014e-05
-2.50748e-06
-7.34703e-06
-4.59526e-06
4.21309e-06
2.17777e-05
5.26816e-05
9.17415e-05
0.000117221
7.40059e-05
-0.000135122
-0.000641944
-0.00156327
-0.00288374
-0.00424889
-0.00467118
-0.0021987
0.0063401
0.0253419
0.0599904
0.11524
0.194248
0.296533
0.416394
0.542292
0.657781
0.744238
0.784948
0.76966
0.697789
0.579305
0.433006
0.281965
0.147952
0.0463792
-0.0165092
-0.0435812
-0.0442345
-0.0305108
-0.0133359
-5.58636e-06
0.00659385
0.00720002
0.0044682
0.00118151
-0.000934237
-0.00151061
-0.00111523
-0.000549646
-0.00028179
-0.000306959
-0.000317407
-6.30386e-06
-1.94312e-06
7.30636e-06
2.48052e-05
5.47827e-05
9.32213e-05
0.000121208
8.82451e-05
-9.7187e-05
-0.000562969
-0.00143017
-0.00270821
-0.00410799
-0.00477505
-0.00298782
0.00407579
0.0203451
0.0504603
0.0988521
0.168325
0.258399
0.363901
0.474436
0.575272
0.649827
0.683381
0.66709
0.600867
0.49411
0.363933
0.231028
0.114615
0.0279978
-0.0238409
-0.0440478
-0.0414797
-0.0271462
-0.0108122
0.00122517
0.00674447
0.00676766
0.00392118
0.000786069
-0.00113677
-0.00162232
-0.00126703
-0.000810497
-0.000631366
-0.000667973
-0.00067277
-4.59665e-06
2.08921e-06
1.23022e-05
3.02255e-05
5.93812e-05
9.71773e-05
0.000128646
0.000110443
-3.95093e-05
-0.000441542
-0.00122048
-0.00241881
-0.00383853
-0.00481322
-0.00394777
0.00108584
0.0135606
0.0373625
0.0762104
0.132455
0.205676
0.291503
0.38119
0.462408
0.521381
0.546044
0.529355
0.471732
0.381593
0.273638
0.165298
0.0724114
0.00554403
-0.0319121
-0.0434004
-0.0369906
-0.0222525
-0.00734744
0.00278773
0.0068063
0.00606835
0.00311603
0.000230718
-0.00139598
-0.00172591
-0.00138593
-0.00103213
-0.000935621
-0.000981653
-0.000979496
-2.44365e-06
7.17231e-06
1.90371e-05
3.82758e-05
6.73117e-05
0.000104815
0.00014014
0.000138758
3.12091e-05
-0.000291036
-0.00095273
-0.00202859
-0.00341803
-0.00466162
-0.00472859
-0.00184568
0.00652236
0.0234167
0.0517678
0.093439
0.148112
0.212358
0.27932
0.339369
0.381842
0.39756
0.381391
0.334173
0.263064
0.179971
0.0986541
0.031232
-0.0146722
-0.0372991
-0.0402751
-0.0306555
-0.0162978
-0.00351969
0.00424966
0.00657128
0.00508476
0.0021467
-0.00035619
-0.00159971
-0.00174542
-0.00142861
-0.00118972
-0.0011761
-0.00122601
-0.00123046
-1.34213e-07
1.26827e-05
2.67582e-05
4.82563e-05
7.82198e-05
0.000116109
0.000155204
0.000170284
0.000106665
-0.000128108
-0.000652264
-0.00156407
-0.00284897
-0.00424007
-0.00505364
-0.00405211
0.000582105
0.0110667
0.029566
0.0574794
0.0946092
0.13847
0.18407
0.224422
0.251865
0.259955
0.245324
0.209079
0.156984
0.0981029
0.0425637
-0.00110711
-0.0280368
-0.0378733
-0.0342066
-0.0228979
-0.00998332
8.16453e-05
0.00530442
0.00602055
0.00399781
0.0012816
-0.000709241
-0.00153291
-0.00152005
-0.00126409
-0.00115327
-0.00121185
-0.00126546
-0.00126223
2.09403e-06
1.7961e-05
3.44023e-05
5.87056e-05
9.04556e-05
0.000129336
0.000171537
0.000200406
0.000176741
2.76763e-05
-0.000350897
-0.00106727
-0.00217004
-0.00354745
-0.00480574
-0.00516435
-0.00342646
0.00190698
0.0123299
0.0288381
0.051348
0.0782156
0.106091
0.130293
0.145753
0.148339
0.136117
0.110289
0.0752215
0.0373648
0.00360312
-0.0206386
-0.0327513
-0.0333866
-0.0258373
-0.0146747
-0.00417433
0.00288897
0.00571288
0.00515895
0.00292683
0.000637758
-0.000783385
-0.00123596
-0.00114631
-0.00100277
-0.00102329
-0.0011358
-0.00117982
-0.00119793
4.13267e-06
2.25986e-05
4.11022e-05
6.81071e-05
0.00010184
0.000141732
0.000185519
0.000223245
0.000230097
0.000154659
-8.58595e-05
-0.000594537
-0.00145566
-0.00266581
-0.00404634
-0.00516495
-0.00530649
-0.00353785
0.00110016
0.00927741
0.0209979
0.0352875
0.0501025
0.0625856
0.0696879
0.0690374
0.0597323
0.0428993
0.0216299
0.000167375
-0.0172346
-0.0275579
-0.0298227
-0.0252222
-0.0165258
-0.00703034
0.00053735
0.00475604
0.00566255
0.00435083
0.00226803
0.000549468
-0.000334279
-0.000527853
-0.000456481
-0.000453386
-0.000579937
-0.000716716
-0.000763303
-0.000765813
5.9526e-06
2.65074e-05
4.65316e-05
7.56364e-05
0.000110866
0.000151078
0.000194162
0.000234108
0.00025735
0.000232981
0.000104502
-0.000211391
-0.000806882
-0.00174064
-0.00297625
-0.00432151
-0.00539867
-0.00567582
-0.00457859
-0.00167821
0.00308332
0.00920643
0.0155817
0.0206494
0.022781
0.0207997
0.0144456
0.00465308
-0.00656064
-0.0166556
-0.0233122
-0.0251729
-0.0222484
-0.0158583
-0.00811425
-0.00116679
0.00348971
0.00538948
0.00503652
0.00349182
0.00182813
0.00070717
0.000246132
0.000179699
0.000169485
4.94713e-05
-0.000133947
-0.000266023
-0.000298375
-0.00033399
7.53619e-06
2.97687e-05
5.08408e-05
8.14031e-05
0.000117481
0.000157236
0.000197605
0.000233485
0.000257499
0.000254268
0.000193379
2.17826e-05
-0.000334786
-0.000953509
-0.00187657
-0.00306407
-0.00436
-0.00549651
-0.00615186
-0.00605734
-0.00512584
-0.00355557
-0.00185588
-0.000754908
-0.00098668
-0.00301088
-0.00676618
-0.0115663
-0.0162232
-0.0193986
-0.0200498
-0.017817
-0.0131733
-0.00727487
-0.0015558
0.00276427
0.0050631
0.00543713
0.00453386
0.00319357
0.00207983
0.00146732
0.00126213
0.00120095
0.00108139
0.000874734
0.000672615
0.000550759
0.000499695
0.000491001
8.65961e-06
3.22504e-05
5.41045e-05
8.57205e-05
0.000122415
0.000161724
0.000199273
0.00022864
0.000243215
0.000234554
0.00019014
8.70267e-05
-0.000114278
-0.000470245
-0.00104146
-0.001865
-0.00292138
-0.00411516
-0.00528834
-0.00627223
-0.00696218
-0.00738267
-0.00770642
-0.00820577
-0.00914131
-0.010622
-0.01247
-0.0142381
-0.0153203
-0.0151287
-0.0133475
-0.0100865
-0.00590231
-0.00163169
0.0018849
0.0040884
0.00486745
0.00454035
0.00366744
0.00279001
0.00222254
0.00199169
0.00193134
0.00185512
0.00168822
0.00148028
0.00131745
0.00123255
0.00119692
0.00117045
1.00598e-05
3.36966e-05
5.65499e-05
8.87414e-05
0.000125989
0.000165353
0.000201653
0.00022692
0.000232275
0.000207971
0.000145106
3.51207e-05
-0.000132386
-0.000374018
-0.000715924
-0.00119173
-0.00183194
-0.00264723
-0.00361468
-0.00467782
-0.00576556
-0.00682182
-0.00782692
-0.00879119
-0.00971411
-0.0105298
-0.011112
-0.0112355
-0.0106303
-0.00913399
-0.00677441
-0.00382882
-0.000767028
0.00188219
0.00370927
0.00456012
0.00457231
0.00409035
0.00350219
0.0030774
0.00288671
0.00283575
0.00277928
0.00263539
0.00242548
0.00222624
0.00209013
0.00201025
0.00195575
0.00193994
9.52362e-06
3.40871e-05
5.66484e-05
8.93801e-05
0.00012708
0.000167059
0.000204149
0.000230073