/*--------------------------------*- C++ -*----------------------------------*\
| =========                 |                                                 |
| \\      /  F ield         | OpenFOAM: The Open Source CFD Toolbox           |
|  \\    /   O peration     | Version:  dev                                   |
|   \\  /    A nd           | Web:      www.OpenFOAM.org                      |
|    \\/     M anipulation  |                                                 |
\*---------------------------------------------------------------------------*/
FoamFile
{
    version     2.0;
    format      ascii;
    class       volScalarField;
    location    "601.9596";
    object      rho;
}
// * * * * * * * * * * * * * * * * * * * * * * * * * * * * * * * * * * * * * //

dimensions      [0 0 0 0 0 0 0];

internalField   nonuniform List<scalar> 
2500
(
9.54355e-09
1.09041e-08
1.14943e-08
1.16065e-08
1.13777e-08
1.25111e-08
1.25321e-08
1.99752e-08
2.31275e-08
3.85845e-08
4.46831e-08
7.71346e-08
1.00318e-07
1.76538e-07
2.5808e-07
4.13667e-07
5.91623e-07
8.27684e-07
1.0823e-06
1.35951e-06
1.61908e-06
1.84387e-06
1.99054e-06
2.05238e-06
2.06298e-06
2.06153e-06
2.06216e-06
2.1113e-06
2.37306e-06
2.87272e-06
3.6653e-06
4.71606e-06
5.38558e-06
5.696e-06
5.34787e-06
4.56601e-06
3.50024e-06
2.33143e-06
1.43173e-06
7.8222e-07
4.05319e-07
2.06057e-07
1.18722e-07
8.92801e-08
6.88043e-08
5.01603e-08
2.98933e-08
1.92059e-08
9.95425e-09
9.33836e-09
1.20434e-08
1.32805e-08
1.30405e-08
1.24701e-08
1.32869e-08
1.51257e-08
2.27733e-08
2.83614e-08
4.26696e-08
4.9065e-08
7.49207e-08
9.37028e-08
1.59665e-07
2.19525e-07
3.65123e-07
5.09197e-07
7.21101e-07
9.39697e-07
1.16552e-06
1.38042e-06
1.51994e-06
1.56877e-06
1.58751e-06
1.60084e-06
1.58952e-06
1.54256e-06
1.45034e-06
1.32042e-06
1.17246e-06
1.02101e-06
8.80338e-07
7.69161e-07
7.00152e-07
7.1914e-07
8.32968e-07
1.00198e-06
1.32895e-06
1.31848e-06
1.11255e-06
7.88027e-07
4.97964e-07
2.99085e-07
1.70807e-07
1.01677e-07
7.64239e-08
5.64092e-08
4.97749e-08
2.45041e-08
2.06529e-08
9.67478e-09
1.54285e-08
1.48132e-08
1.34142e-08
1.39809e-08
1.29867e-08
2.57359e-08
2.79411e-08
4.33321e-08
4.69058e-08
6.20219e-08
7.55342e-08
1.08248e-07
1.60479e-07
2.49373e-07
3.6192e-07
5.16157e-07
6.58537e-07
7.77423e-07
8.17177e-07
8.26234e-07
8.33018e-07
8.35684e-07
8.27563e-07
8.00413e-07
7.52747e-07
6.91455e-07
6.26569e-07
5.61868e-07
4.95445e-07
4.2781e-07
3.62855e-07
3.02541e-07
2.49503e-07
2.03709e-07
1.69089e-07
1.51125e-07
1.90589e-07
2.71433e-07
3.70945e-07
3.99159e-07
3.46436e-07
2.57183e-07
1.60132e-07
1.04722e-07
6.85772e-08
5.95692e-08
4.41985e-08
3.78093e-08
2.38498e-08
1.41062e-08
1.77064e-08
1.48132e-08
1.45056e-08
1.43047e-08
2.57586e-08
2.9319e-08
4.31232e-08
4.6707e-08
5.40321e-08
6.11286e-08
8.00364e-08
1.082e-07
1.58662e-07
2.19799e-07
2.85802e-07
3.37835e-07
3.60595e-07
3.68951e-07
3.75235e-07
3.73451e-07
3.61848e-07
3.39536e-07
3.08299e-07
2.71036e-07
2.30634e-07
1.90836e-07
1.55826e-07
1.27602e-07
1.06731e-07
9.20888e-08
8.1879e-08
7.6262e-08
7.1543e-08
6.51311e-08
5.59666e-08
4.45546e-08
3.75644e-08
4.1673e-08
5.9506e-08
9.07466e-08
1.24116e-07
1.22904e-07
1.10203e-07
7.54227e-08
6.16781e-08
4.26095e-08
4.15962e-08
3.40735e-08
2.92636e-08
1.84987e-08
1.81777e-08
1.48692e-08
1.47562e-08
2.39465e-08
2.84749e-08
4.37778e-08
4.61274e-08
5.04941e-08
5.19744e-08
5.9569e-08
6.87857e-08
8.63707e-08
1.04403e-07
1.24229e-07
1.35433e-07
1.41876e-07
1.4717e-07
1.4967e-07
1.46195e-07
1.35048e-07
1.17639e-07
9.73457e-08
7.70707e-08
5.85795e-08
4.25646e-08
2.96478e-08
2.01023e-08
1.34853e-08
9.46388e-09
6.92747e-09
6.14451e-09
6.67353e-09
8.15131e-09
1.01997e-08
1.21498e-08
1.26084e-08
1.25038e-08
1.33439e-08
1.58907e-08
2.30084e-08
3.35135e-08
4.50043e-08
4.79214e-08
4.67609e-08
3.56054e-08
3.03882e-08
2.78875e-08
2.87453e-08
2.68038e-08
2.24549e-08
1.65453e-08
1.57328e-08
1.98474e-08
2.75714e-08
4.301e-08
4.50701e-08
4.74612e-08
4.4278e-08
4.1117e-08
3.88194e-08
4.10326e-08
4.46707e-08
4.89709e-08
5.12468e-08
5.35419e-08
5.51588e-08
5.51157e-08
5.20115e-08
4.49957e-08
3.56772e-08
2.62891e-08
1.81673e-08
1.18146e-08
7.17873e-09
4.0111e-09
2.03958e-09
9.675e-10
4.48779e-10
2.32748e-10
1.26748e-10
1.04253e-10
1.28547e-10
2.18996e-10
4.52327e-10
9.33518e-10
1.71302e-09
2.8281e-09
4.34996e-09
7.08626e-09
1.13249e-08
1.83675e-08
2.54816e-08
2.96305e-08
2.90844e-08
2.71246e-08
2.20499e-08
1.91004e-08
2.01955e-08
2.2045e-08
2.10902e-08
1.54901e-08
1.71007e-08
2.5421e-08
4.04991e-08
4.57487e-08
4.59895e-08
4.06455e-08
3.17441e-08
2.26437e-08
1.91471e-08
1.86851e-08
1.89124e-08
1.90548e-08
1.93249e-08
1.92e-08
1.84711e-08
1.64961e-08
1.3446e-08
9.76575e-09
6.32499e-09
3.67599e-09
1.93731e-09
9.16375e-10
3.76306e-10
1.24666e-10
3.0812e-11
6.14823e-12
-1.58699e-14
-9.47594e-13
-1.73317e-12
-2.30429e-12
-2.63111e-12
-2.37808e-12
2.35028e-13
1.31802e-11
6.96512e-11
2.65472e-10
8.97358e-10
2.54818e-09
6.14469e-09
1.18902e-08
1.98806e-08
2.60693e-08
2.6756e-08
2.55562e-08
2.22661e-08
1.82154e-08
1.60184e-08
1.69347e-08
1.81148e-08
1.51479e-08
2.12839e-08
3.60902e-08
4.51454e-08
4.56803e-08
4.0667e-08
2.92611e-08
1.69058e-08
1.03202e-08
7.90777e-09
7.22222e-09
6.91785e-09
6.67541e-09
6.22711e-09
5.61607e-09
4.73187e-09
3.65764e-09
2.46762e-09
1.42511e-09
6.89059e-10
2.77363e-10
9.05083e-11
2.21839e-11
2.91808e-12
-6.96734e-13
-1.02736e-12
-1.39903e-12
-1.73746e-12
-2.17226e-12
-2.64819e-12
-3.11866e-12
-3.5242e-12
-3.78022e-12
-3.92861e-12
-3.87781e-12
-3.34968e-12
5.60507e-12
9.29291e-11
6.20571e-10
2.50397e-09
6.89212e-09
1.4331e-08
2.26761e-08
2.7596e-08
2.71754e-08
2.49216e-08
2.05529e-08
1.66919e-08
1.52509e-08
1.53685e-08
1.73835e-08
2.99521e-08
4.32317e-08
4.64727e-08
4.2343e-08
3.03868e-08
1.59805e-08
7.08017e-09
3.64527e-09
2.70026e-09
2.38166e-09
2.17438e-09
1.91919e-09
1.62771e-09
1.29203e-09
9.54816e-10
6.18511e-10
3.33715e-10
1.38412e-10
4.13025e-11
8.06503e-12
4.21372e-13
-3.94557e-13
-6.13344e-13
-8.90168e-13
-1.22689e-12
-1.62149e-12
-2.071e-12
-2.57208e-12
-3.10957e-12
-3.65515e-12
-4.16239e-12
-4.57892e-12
-4.84295e-12
-4.84347e-12
-4.78709e-12
-5.0875e-12
4.72619e-13
8.71852e-11
6.92557e-10
2.98799e-09
8.54607e-09
1.72933e-08
2.5478e-08
3.06831e-08
2.96685e-08
2.59264e-08
2.04669e-08
1.6346e-08
1.43053e-08
2.23829e-08
3.85458e-08
4.62529e-08
4.43233e-08
3.40494e-08
1.80489e-08
6.59181e-09
2.12215e-09
1.02654e-09
7.59111e-10
6.4464e-10
5.47804e-10
4.49232e-10
3.45206e-10
2.50198e-10
1.63511e-10
9.11317e-11
3.84878e-11
1.0604e-11
1.35369e-12
-1.68496e-13
-3.10413e-13
-4.76033e-13
-6.78769e-13
-9.3341e-13
-1.25097e-12
-1.63803e-12
-2.09923e-12
-2.63213e-12
-3.22464e-12
-3.85142e-12
-4.47066e-12
-5.02888e-12
-5.46251e-12
-5.68688e-12
-5.77992e-12
-5.77636e-12
-4.88768e-12
3.27597e-12
1.18833e-10
8.98374e-10
3.88796e-09
1.08608e-08
2.05161e-08
2.91916e-08
3.46245e-08
3.26442e-08
2.7015e-08
2.08419e-08
1.49531e-08
2.98455e-08
4.49297e-08
4.60663e-08
3.89912e-08
2.25578e-08
7.97609e-09
1.83281e-09
4.57419e-10
2.28328e-10
1.73562e-10
1.43759e-10
1.17434e-10
9.1023e-11
6.75969e-11
4.68411e-11
2.90489e-11
1.44571e-11
4.98167e-12
7.69084e-13
-1.2592e-13
-2.29951e-13
-3.43674e-13
-4.78002e-13
-6.48029e-13
-8.68395e-13
-1.15082e-12
-1.50406e-12
-1.93656e-12
-2.4524e-12
-3.04781e-12
-3.70659e-12
-4.39584e-12
-5.06554e-12
-5.65105e-12
-6.07818e-12
-6.33084e-12
-6.3346e-12
-5.58066e-12
-4.75882e-12
8.21446e-12
1.81567e-10
1.29342e-09
5.32128e-09
1.37578e-08
2.46046e-08
3.37228e-08
3.87489e-08
3.55878e-08
2.7754e-08
1.83182e-08
3.82529e-08
4.68529e-08
4.36325e-08
2.91428e-08
1.14419e-08
2.43002e-09
3.37078e-10
7.29531e-11
4.16447e-11
3.31093e-11
2.75206e-11
2.23501e-11
1.75614e-11
1.32638e-11
9.13354e-12
5.26299e-12
2.10244e-12
3.96053e-13
-1.47668e-13
-2.13124e-13
-2.73104e-13
-3.46446e-13
-4.435e-13
-5.73915e-13
-7.47801e-13
-9.75006e-13
-1.26509e-12
-1.62943e-12
-2.07812e-12
-2.61676e-12
-3.24138e-12
-3.93267e-12
-4.65189e-12
-5.34038e-12
-5.92612e-12
-6.3501e-12
-6.50749e-12
-6.09782e-12
-5.33092e-12
-4.10565e-12
2.03312e-11
3.14212e-10
2.0187e-09
7.49341e-09
1.77019e-08
2.99859e-08
3.9125e-08
4.07941e-08
3.72138e-08
2.38723e-08
4.48159e-08
4.6765e-08
3.7183e-08
1.77947e-08
4.27667e-09
4.95258e-10
3.94816e-11
8.93033e-12
5.60436e-12
4.60708e-12
3.90643e-12
3.27637e-12
2.67625e-12
1.88322e-12
1.09607e-12
3.56524e-13
-1.0011e-13
-2.03909e-13
-2.52548e-13
-2.76009e-13
-2.98086e-13
-3.33344e-13
-3.90222e-13
-4.74393e-13
-5.91149e-13
-7.46687e-13
-9.49195e-13
-1.21062e-12
-1.5453e-12
-1.96721e-12
-2.48495e-12
-3.09574e-12
-3.77873e-12
-4.48993e-12
-5.16482e-12
-5.73058e-12
-6.08121e-12
-6.02324e-12
-5.53336e-12
-4.64776e-12
-2.13497e-12
5.30453e-11
6.01225e-10
3.31628e-09
1.07684e-08
2.34665e-08
3.6516e-08
4.49549e-08
4.31919e-08
3.20668e-08
4.8169e-08
4.48792e-08
2.74863e-08
8.47789e-09
1.12863e-09
6.28804e-11
2.16901e-12
-2.06722e-13
-3.27979e-13
-4.7566e-13
-4.96707e-13
-4.96288e-13
-4.60551e-13
-4.08708e-13
-4.58013e-13
-4.7074e-13
-4.50037e-13
-4.1032e-13
-3.64637e-13
-3.26134e-13
-3.03615e-13
-3.00957e-13
-3.18862e-13
-3.56518e-13
-4.12561e-13
-4.8686e-13
-5.83489e-13
-7.11795e-13
-8.90162e-13
-1.14125e-12
-1.47271e-12
-1.90075e-12
-2.4311e-12
-3.04528e-12
-3.70389e-12
-4.33197e-12
-4.83532e-12
-5.08975e-12
-4.99384e-12
-4.48539e-12
-3.09192e-12
3.54229e-12
1.43047e-10
1.22149e-09
5.59665e-09
1.59632e-08
3.08962e-08
4.37985e-08
4.76714e-08
3.94544e-08
4.92855e-08
3.89093e-08
1.6783e-08
3.07937e-09
2.05216e-10
3.78546e-12
-1.04545e-12
-1.30823e-12
-1.53082e-12
-1.64486e-12
-1.60034e-12
-1.47606e-12
-1.33048e-12
-1.17417e-12
-1.01015e-12
-8.43258e-13
-6.83397e-13
-5.42298e-13
-4.27983e-13
-3.43233e-13
-2.86653e-13
-2.53834e-13
-2.38737e-13
-2.34426e-13
-2.33228e-13
-2.24316e-13
-2.0501e-13
-1.86811e-13
-1.60588e-13
-1.62728e-13
-8.33902e-14
-8.15619e-14
-3.03748e-13
-7.6499e-13
-1.10482e-12
-1.82961e-12
-2.44888e-12
-2.99489e-12
-3.3867e-12
-3.39813e-12
-2.80306e-12
-1.39257e-12
2.65459e-11
3.87413e-10
2.5337e-09
9.57896e-09
2.33996e-08
3.9736e-08
4.9671e-08
4.55601e-08
4.81228e-08
3.00536e-08
8.43789e-09
8.40909e-10
2.47294e-11
-1.26514e-12
-1.79473e-12
-2.23892e-12
-2.52342e-12
-2.60616e-12
-2.50656e-12
-2.27955e-12
-1.98233e-12
-1.65909e-12
-1.34105e-12
-1.05011e-12
-8.00316e-13
-5.98092e-13
-4.43293e-13
-3.31129e-13
-2.53668e-13
-2.00347e-13
-1.5995e-13
-1.23771e-13
-6.15546e-14
4.98419e-14
4.42018e-13
1.31598e-12
2.86276e-12
5.19127e-12
7.94065e-12
1.05141e-11
1.22199e-11
1.21208e-11
1.0491e-11
7.73058e-12
4.62166e-12
1.7689e-12
-8.07931e-14
-1.10216e-12
-1.47713e-12
-9.61258e-13
2.49394e-12
1.09292e-10
1.03061e-09
5.15848e-09
1.60476e-08
3.30764e-08
4.88217e-08
4.91052e-08
4.45412e-08
2.02712e-08
3.42941e-09
1.7708e-10
6.93916e-13
-2.11333e-12
-2.63377e-12
-3.14077e-12
-3.42827e-12
-3.44798e-12
-3.23788e-12
-2.87139e-12
-2.42521e-12
-1.9631e-12
-1.53038e-12
-1.15412e-12
-8.46052e-13
-6.06594e-13
-4.28992e-13
-3.02618e-13
-2.14391e-13
-1.48199e-13
-9.08245e-14
-3.89802e-15
3.28906e-13
1.46084e-12
4.39981e-12
1.06539e-11
2.16519e-11
3.76524e-11
5.66792e-11
7.47438e-11
8.6996e-11
8.8872e-11
8.15774e-11
6.67129e-11
4.87078e-11
3.18067e-11
1.79271e-11
8.25011e-12
2.99934e-12
6.00478e-13
2.357e-12
2.38321e-11
3.86328e-10
2.58574e-09
1.01265e-08
2.55058e-08
4.51434e-08
5.24838e-08
3.82554e-08
1.19828e-08
1.12965e-09
3.23399e-11
-1.71325e-12
-2.54387e-12
-3.36683e-12
-3.97223e-12
-4.23387e-12
-4.15323e-12
-3.80653e-12
-3.29533e-12
-2.71581e-12
-2.14318e-12
-1.62697e-12
-1.19291e-12
-8.48199e-13
-5.87651e-13
-3.99153e-13
-2.67551e-13
-1.75646e-13
-1.01526e-13
-1.78372e-14
3.90307e-13
2.22097e-12
8.47884e-12
2.54677e-11
6.25229e-11
1.2809e-10
2.22532e-10
3.32238e-10
4.31776e-10
4.96126e-10
4.9023e-10
4.46832e-10
3.62507e-10
2.6554e-10
1.77513e-10
1.07444e-10
5.85194e-11
2.849e-11
1.19124e-11
5.94544e-12
1.45303e-11
1.34362e-10
1.22216e-09
6.07735e-09
1.8508e-08
3.93027e-08
5.27038e-08
3.07043e-08
6.07253e-09
3.04984e-10
8.22451e-12
-2.29816e-12
-3.19061e-12
-4.1277e-12
-4.7484e-12
-4.93651e-12
-4.73239e-12
-4.24584e-12
-3.60157e-12
-2.90922e-12
-2.24945e-12
-1.67146e-12
-1.19736e-12
-8.29386e-13
-5.57353e-13
-3.64826e-13
-2.33146e-13
-1.41769e-13
-6.19833e-14
1.54565e-13
1.81611e-12
1.02874e-11
4.23079e-11
1.34867e-10
3.4333e-10
7.14777e-10
1.24174e-09
1.83159e-09
2.32727e-09
2.61032e-09
2.48706e-09
2.18678e-09
1.73025e-09
1.23344e-09
8.0492e-10
4.81956e-10
2.64023e-10
1.32991e-10
6.10851e-11
2.4007e-11
2.00639e-11
5.59611e-11
5.79552e-10
3.53481e-09
1.29781e-08
3.24047e-08
5.17719e-08
2.26972e-08
2.58891e-09
7.77647e-11
3.7028e-12
-2.63124e-12
-3.7822e-12
-4.84067e-12
-5.44483e-12
-5.53816e-12
-5.20807e-12
-4.59335e-12
-3.83511e-12
-3.05061e-12
-2.32202e-12
-1.6964e-12
-1.19204e-12
-8.07047e-13
-5.27403e-13
-3.33359e-13
-2.03518e-13
-1.14606e-13
-2.98465e-14
5.2949e-13
6.22249e-12
4.22006e-11
1.97064e-10
6.81709e-10
1.8164e-09
3.85049e-09
6.67266e-09
9.67514e-09
1.1957e-08
1.28803e-08
1.19045e-08
1.00078e-08
7.61204e-09
5.23449e-09
3.29583e-09
1.91325e-09
1.02613e-09
5.10612e-10
2.35992e-10
9.69782e-11
4.14868e-11
6.04812e-11
2.58808e-10
2.02943e-09
8.91539e-09
2.57786e-08
4.9543e-08
1.52843e-08
9.07845e-10
2.63044e-11
1.68219e-12
-2.96323e-12
-4.37076e-12
-5.50156e-12
-6.05682e-12
-6.05077e-12
-5.60812e-12
-4.88623e-12
-4.03541e-12
-3.17637e-12
-2.39113e-12
-1.72478e-12
-1.19312e-12
-7.91725e-13
-5.04087e-13
-3.08026e-13
-1.79837e-13
-9.40688e-14
-3.29816e-15
1.10104e-12
1.61771e-11
1.519e-10
8.54494e-10
3.29999e-09
9.30503e-09
2.01128e-08
3.46311e-08
4.90277e-08
5.86503e-08
5.9758e-08
5.36061e-08
4.294e-08
3.11787e-08
2.05703e-08
1.24518e-08
6.97165e-09
3.62566e-09
1.75875e-09
7.97668e-10
3.33575e-10
1.23054e-10
8.513e-11
1.8472e-10
1.18852e-09
6.07523e-09
2.00214e-08
4.63429e-08
9.16737e-09
2.58325e-10
1.32756e-11
1.09345e-13
-3.29656e-12
-4.9383e-12
-6.09099e-12
-6.58289e-12
-6.49135e-12
-5.96123e-12
-5.15754e-12
-4.23419e-12
-3.31331e-12
-2.47714e-12
-1.77058e-12
-1.20914e-12
-7.87934e-13
-4.89275e-13
-2.89143e-13
-1.61471e-13
-7.9007e-14
1.33772e-14
1.50881e-12
2.99349e-11
4.43263e-10
3.3522e-09
1.52859e-08
4.64588e-08
1.02378e-07
1.73786e-07
2.37743e-07
2.72888e-07
2.61184e-07
2.25088e-07
1.71817e-07
1.18716e-07
7.49432e-08
4.35734e-08
2.35062e-08
1.18242e-08
5.56791e-09
2.46037e-09
1.01899e-09
3.80284e-10
1.55926e-10
2.05665e-10
6.74143e-10
4.13992e-09
1.5476e-08
4.26665e-08
4.70042e-09
6.74197e-11
7.03495e-12
-7.25716e-13
-3.54145e-12
-5.45694e-12
-6.59224e-12
-7.02721e-12
-6.87823e-12
-6.29183e-12
-5.43184e-12
-4.45247e-12
-3.47717e-12
-2.59034e-12
-1.83932e-12
-1.24196e-12
-7.95362e-13
-4.81661e-13
-2.75394e-13
-1.47201e-13
-6.81155e-14
3.8101e-15
1.34527e-12
3.90785e-11
8.52561e-10
1.17589e-08
6.77772e-08
2.25488e-07
5.05373e-07
8.377e-07
1.09568e-06
1.1843e-06
1.07723e-06
8.76614e-07
6.35841e-07
4.18432e-07
2.52723e-07
1.41187e-07
7.34291e-08
3.57273e-08
1.63224e-08
7.02055e-09
2.85118e-09
1.0739e-09
3.70514e-10
2.72565e-10
5.86705e-10
2.90026e-09
1.19461e-08
3.90193e-08
1.96747e-09
2.78336e-11
3.05575e-12
-1.45733e-12
-4.0505e-12
-5.91069e-12
-6.99417e-12
-7.39578e-12
-7.22501e-12
-6.61479e-12
-5.72175e-12
-4.699e-12
-3.67263e-12
-2.73174e-12
-1.92894e-12
-1.28741e-12
-8.09555e-13
-4.77276e-13
-2.64686e-13
-1.36016e-13
-6.0717e-14
-6.60839e-15
6.48906e-13
2.31584e-11
7.63311e-10
3.19569e-08
2.84197e-07
1.07478e-06
2.4309e-06
3.86449e-06
4.75883e-06
4.77381e-06
4.1211e-06
3.15247e-06
2.16755e-06
1.36002e-06
7.87019e-07
4.23032e-07
2.12417e-07
1.00105e-07
4.44308e-08
1.8628e-08
7.40286e-09
2.76993e-09
9.32703e-10
4.24377e-10
6.25017e-10
1.99568e-09
9.54224e-09
3.56743e-08
8.21833e-10
2.25946e-11
9.53725e-13
-2.07028e-12
-4.51254e-12
-6.24839e-12
-7.28875e-12
-7.69131e-12
-7.53565e-12
-6.93222e-12
-6.02653e-12
-4.97034e-12
-3.89389e-12
-2.89327e-12
-2.02919e-12
-1.33384e-12
-8.21273e-13
-4.68502e-13
-2.5407e-13
-1.27323e-13
-5.54874e-14
-1.436e-14
1.42319e-13
5.79555e-12
1.55259e-10
4.64185e-08
1.11167e-06
5.12286e-06
1.14523e-05
1.69415e-05
1.91903e-05
1.78561e-05
1.44299e-05
1.03861e-05
6.77623e-06
4.06316e-06
2.25812e-06
1.1703e-06
5.68656e-07
2.60192e-07
1.12472e-07
4.60627e-08
1.79147e-08
6.59574e-09
2.2204e-09
7.76031e-10
7.56882e-10
1.83439e-09
7.30779e-09
3.29666e-08
7.54099e-10
2.31247e-11
5.36681e-14
-2.51938e-12
-4.80595e-12
-6.444e-12
-7.47163e-12
-7.90946e-12
-7.80215e-12
-7.23264e-12
-6.33237e-12
-5.25134e-12
-4.12429e-12
-3.05496e-12
-2.11679e-12
-1.35588e-12
-8.15081e-13
-4.42222e-13
-2.38442e-13
-1.20559e-13
-4.82315e-14
-2.06555e-14
1.20467e-14
1.62415e-12
1.96391e-09
2.97909e-07
5.98566e-06
2.67028e-05
5.30462e-05
6.92508e-05
7.07153e-05
6.09254e-05
4.5955e-05
3.11833e-05
1.9377e-05
1.11413e-05
5.96348e-06
2.98865e-06
1.40964e-06
6.28149e-07
2.65172e-07
1.06261e-07
4.04507e-08
1.45965e-08
4.88754e-09
1.55388e-09
1.01968e-09
1.88834e-09
6.52744e-09
3.02463e-08
3.2704e-09
4.92512e-11
-1.42142e-13
-2.77485e-12
-4.93702e-12
-6.51309e-12
-7.55329e-12
-8.0532e-12
-8.01903e-12
-7.50274e-12
-6.61965e-12
-5.5166e-12
-4.32994e-12
-3.16837e-12
-2.13382e-12
-1.28639e-12
-7.56987e-13
-3.75282e-13
-2.0967e-13
-1.05625e-13
5.15468e-15
5.16439e-13
1.86265e-11
3.27502e-09
3.09123e-07
7.51851e-06
5.27999e-05
0.000147323
0.000228854
0.00025388
0.000235039
0.000187093
0.000132445
8.5193e-05
5.06717e-05
2.80364e-05
1.45022e-05
7.05389e-06
3.24095e-06
1.41065e-06
5.82746e-07
2.28684e-07
8.52439e-08
3.01486e-08
9.99038e-09
3.08805e-09
1.52958e-09
2.09749e-09
7.00455e-09
2.67939e-08
8.00057e-09
1.66866e-10
1.11153e-12
-2.76183e-12
-4.90645e-12
-6.46174e-12
-7.53555e-12
-8.11813e-12
-8.17467e-12
-7.7241e-12
-6.86354e-12
-5.7318e-12
-4.45494e-12
-3.13292e-12
-1.96415e-12
-9.96783e-13
-5.52036e-13
1.88396e-12
1.81764e-11
1.16446e-10
6.51781e-10
4.39472e-09
5.73535e-08
1.32233e-06
2.02005e-05
0.000134292
0.000410699
0.000713052
0.000848062
0.000829093
0.000694971
0.000514633
0.000344645
0.000211857
0.000121198
6.47646e-05
3.25141e-05
1.54118e-05
6.91954e-06
2.94812e-06
1.19319e-06
4.5891e-07
1.67762e-07
5.82993e-08
1.9108e-08
5.85852e-09
2.46199e-09
2.54998e-09
8.03452e-09
2.28942e-08
1.69101e-08
5.22111e-10
1.58939e-11
-2.43299e-12
-4.69128e-12
-6.27545e-12
-7.40077e-12
-8.0817e-12
-8.24105e-12
-7.86522e-12
-7.02915e-12
-5.84984e-12
-4.40477e-12
-2.70203e-12
-1.36399e-12
1.66175e-11
3.09149e-10
3.34032e-09
2.55923e-08
1.47093e-07
6.97345e-07
3.2874e-06
1.86685e-05
0.000111979
0.000484666
0.00129697
0.00221575
0.00269087
0.00270338
0.00236145
0.00181937
0.00126839
0.000810883
0.0004798
0.000265199
0.000137517
6.73379e-05
3.1214e-05
1.37251e-05
5.73201e-06
2.27553e-06
8.59225e-07
3.08911e-07
1.05843e-07
3.43548e-08
1.04961e-08
3.98937e-09
3.44192e-09
9.41637e-09
1.9172e-08
3.05812e-08
1.56865e-09
8.89889e-11
-1.76538e-12
-4.26847e-12
-5.94117e-12
-7.13376e-12
-7.92322e-12
-8.19023e-12
-7.89366e-12
-7.08054e-12
-5.81863e-12
-4.02425e-12
-9.3782e-13
1.68002e-10
5.15274e-09
8.51241e-08
8.51155e-07
5.64982e-06
2.68014e-05
9.82474e-05
0.000308572
0.000893122
0.00226594
0.00454645
0.00693872
0.00816441
0.00820699
0.00733686
0.00584272
0.00422498
0.00280812
0.00172798
0.000990096
0.000531655
0.000269058
0.000129028
5.86226e-05
2.52848e-05
1.03671e-05
4.04516e-06
1.50389e-06
5.33566e-07
1.80804e-07
5.81679e-08
1.76731e-08
6.35628e-09
4.88153e-09
9.56429e-09
1.68255e-08
5.25286e-08
4.58874e-09
3.78199e-10
3.59103e-12
-3.61716e-12
-5.44665e-12
-6.72449e-12
-7.62748e-12
-7.99832e-12
-7.78155e-12
-6.99527e-12
-5.63556e-12
-3.19307e-12
1.9597e-10
1.24338e-08
3.65818e-07
5.51164e-06
4.69252e-05
0.000251187
0.00092697
0.00254305
0.00555176
0.0101556
0.0158409
0.0208793
0.0231845
0.0230018
0.0207337
0.0169451
0.0126816
0.00875384
0.00560722
0.0033458
0.00186737
0.00097994
0.000486244
0.000228856
0.00010207
4.32664e-05
1.74588e-05
6.71611e-06
2.46668e-06
8.66236e-07
2.90865e-07
9.279e-08
2.80342e-08
9.77702e-09
6.89791e-09
9.8018e-09
1.89043e-08
8.95413e-08
1.25829e-08
1.48635e-09
5.78995e-11
-2.76782e-12
-4.78176e-12
-6.16902e-12
-7.18605e-12
-7.64855e-12
-7.51067e-12
-6.78475e-12
-5.53585e-12
2.59227e-11
5.05074e-09
3.08531e-07
8.22006e-06
0.00010528
0.000725485
0.0030423
0.00869151
0.0185073
0.0314446
0.0447453
0.0547175
0.0585446
0.057578
0.0524077
0.0439651
0.0340455
0.0244691
0.0163435
0.0101777
0.00592452
0.00323555
0.00166585
0.000812299
0.000375745
0.000164886
6.88893e-05
2.74436e-05
1.04413e-05
3.79912e-06
1.32317e-06
4.40687e-07
1.39511e-07
4.21151e-08
1.44264e-08
9.3315e-09
1.03357e-08
2.67115e-08
1.46453e-07
3.26533e-08
5.20478e-09
3.67196e-10
2.23665e-12
-3.97238e-12
-5.46733e-12
-6.59486e-12
-7.1307e-12
-7.06293e-12
-6.42466e-12
-5.27839e-12
3.2717e-10
5.46749e-08
3.14804e-06
7.28236e-05
0.000768866
0.00425137
0.0142195
0.0329035
0.0586512
0.0864942
0.109236
0.120082
0.120749
0.113776
0.0994352
0.080536
0.06068
0.0425567
0.0278063
0.0169502
0.00965992
0.00516821
0.00261109
0.00125179
0.000570463
0.00024734
0.000102288
4.03777e-05
1.52374e-05
5.50264e-06
1.90215e-06
6.28472e-07
1.97595e-07
5.97406e-08
2.01515e-08
1.17217e-08
1.19891e-08
4.47494e-08
2.2619e-07
7.57772e-08
1.71465e-08
1.84078e-09
7.7116e-11
-3.19018e-12
-4.60698e-12
-5.85177e-12
-6.43719e-12
-6.39205e-12
-5.65554e-12
-3.29944e-12
1.72395e-09
2.93206e-07
1.57692e-05
0.000316374
0.00278481
0.0127287
0.0356894
0.0711864
0.113157
0.153835
0.18409
0.196635
0.196746
0.185246
0.1615
0.130083
0.0968545
0.0669296
0.0431083
0.025919
0.0145468
0.00764042
0.0037847
0.00178262
0.000801564
0.000344401
0.000141421
5.54769e-05
2.08123e-05
7.47053e-06
2.56588e-06
8.42325e-07
2.63906e-07
7.99191e-08
2.64674e-08
1.4503e-08
1.58981e-08
7.8469e-08
3.20528e-07
1.59606e-07
4.8184e-08
8.20155e-09
6.04933e-10
1.10816e-11
-3.46609e-12
-4.97332e-12
-5.57788e-12
-5.49857e-12
-4.46102e-12
9.87785e-13
5.06558e-09
8.83449e-07
4.50897e-05
0.000810034
0.00620465
0.024663
0.0612177
0.110672
0.162979
0.209741
0.244
0.260415
0.262897
0.255032
0.22944
0.187993
0.139986
0.0953107
0.060166
0.0356201
0.0198389
0.0103654
0.00509175
0.00237281
0.00105695
0.000450935
0.000184075
7.18332e-05
2.68149e-05
9.57629e-06
3.27164e-06
1.06802e-06
3.32574e-07
1.00039e-07
3.24423e-08
1.84185e-08
2.51621e-08
1.33022e-07
4.17823e-07
2.83399e-07
1.21393e-07
2.91075e-08
3.79756e-09
1.91752e-10
-1.45917e-12
-4.04144e-12
-4.62282e-12
-4.57593e-12
-4.12111e-12
8.26619e-12
9.21755e-09
1.65259e-06
8.25031e-05
0.00139215
0.0098086
0.0358244
0.0826441
0.140783
0.197392
0.244138
0.277362
0.295804
0.301564
0.300873
0.287023
0.249044
0.191389
0.129715
0.0789617
0.0447384
0.0241921
0.0125149
0.00614881
0.00286714
0.00127528
0.000542711
0.000220888
8.59296e-05
3.19568e-05
1.13578e-05
3.85705e-06
1.25162e-06
3.88466e-07
1.16018e-07
3.84573e-08
2.3741e-08
4.60417e-08
2.07503e-07
4.95655e-07
4.37349e-07
2.4753e-07
8.95533e-08
1.77247e-08
1.80423e-09
6.44802e-11
-3.10064e-12
-3.70083e-12
-3.61171e-12
-3.26865e-12
1.12534e-11
1.14889e-08
2.11495e-06
0.0001065
0.00176411
0.0120323
0.0424336
0.0948976
0.157449
0.215502
0.260409
0.290064
0.306228
0.312531
0.31361
0.308437
0.278725
0.220646
0.153689
0.0957669
0.0544888
0.0290109
0.0147376
0.00718312
0.00333883
0.00147819
0.00062563
0.000253532
9.83013e-05
3.64383e-05
1.29248e-05
4.39691e-06
1.43471e-06
4.45138e-07
1.30293e-07
4.47333e-08
3.22647e-08
8.33402e-08
2.9512e-07
5.52809e-07
5.63913e-07
4.29899e-07
2.15374e-07
6.75769e-08
1.15163e-08
9.72295e-10
2.66943e-11
-2.97363e-12
-2.81197e-12
-2.61038e-12
9.43516e-12
1.09122e-08
2.13324e-06
0.000109614
0.00183087
0.0124979
0.0439701
0.0980343
0.162102
0.220827
0.265062
0.292898
0.307017
0.312016
0.312747
0.306353
0.273747
0.215272
0.150427
0.094684
0.0544894
0.0294005
0.0151331
0.00744479
0.00349
0.00155531
0.000660192
0.000267758
0.000103854
3.84929e-05
1.36285e-05
4.60482e-06
1.47607e-06
4.44866e-07
1.31758e-07
5.3616e-08
4.64288e-08
1.46532e-07
3.79127e-07
5.79941e-07
6.47363e-07
6.02973e-07
4.22319e-07
1.91275e-07
5.5328e-08
8.43802e-09
6.402e-10
1.63249e-11
-2.21624e-12
-1.94719e-12
2.06741e-12
4.15457e-09
9.87492e-07
6.0616e-05
0.00117325
0.00901586
0.0347783
0.0831184
0.144666
0.204383
0.251311
0.281758
0.297686
0.303596
0.304529
0.294821
0.255115
0.196952
0.137878
0.0879602
0.0515167
0.0281047
0.0145263
0.00716616
0.00336789
0.00150457
0.000639911
0.000259908
0.000100924
3.74407e-05
1.3259e-05
4.47297e-06
1.42741e-06
4.27302e-07
1.30145e-07
6.62667e-08
7.27007e-08
2.19174e-07
4.42557e-07
5.43001e-07
6.92985e-07
7.22739e-07
6.3942e-07
4.20286e-07
1.81385e-07
4.99261e-08
7.25635e-09
5.38719e-10
1.58278e-11
-1.08529e-12
6.06648e-14
1.5435e-09
4.23393e-07
2.99213e-05
0.000662429
0.00574064
0.0244843
0.0633126
0.116995
0.173019
0.220335
0.253482
0.27228
0.279801
0.281027
0.266164
0.220312
0.16674
0.117106
0.0756563
0.0450546
0.0249951
0.0130621
0.00648351
0.00306093
0.00137308
0.000586061
0.000238716
9.29074e-05
3.45307e-05
1.22328e-05
4.11553e-06
1.30127e-06
3.86972e-07
1.28803e-07
8.28392e-08
1.15303e-07
2.97279e-07
4.65825e-07
4.10444e-07
7.11275e-07
7.72583e-07
7.93835e-07
6.74785e-07
4.36961e-07
1.85302e-07
5.03547e-08
7.56267e-09
6.33586e-10
3.37375e-11
7.75717e-12
3.73902e-10
1.0873e-07
9.57337e-06
0.000262428
0.00275939
0.0138544
0.0407228
0.0827773
0.131139
0.175346
0.208538
0.228549
0.236874
0.238084
0.218828
0.174037
0.130484
0.0923108
0.0603328
0.0364381
0.0205368
0.0108912
0.0054631
0.00259911
0.00117354
0.000503681
0.000206028
8.04502e-05
2.99506e-05
1.06065e-05
3.54136e-06
1.10534e-06
3.32145e-07
1.31743e-07
1.05611e-07
1.88119e-07
3.66885e-07
4.38663e-07
2.91765e-07
5.88617e-07
7.98469e-07
8.45403e-07
8.61906e-07
7.26862e-07
4.70513e-07
2.04003e-07
5.84682e-08
1.00313e-08
1.10354e-09
1.88068e-10
1.46175e-10
1.93753e-08
2.13709e-06
7.47552e-05
0.000990778
0.00610227
0.0212152
0.0490849
0.0855179
0.122232
0.151896
0.170772
0.178897
0.180067
0.161618
0.125616
0.0945384
0.0675734
0.0446221
0.0272851
0.0156005
0.00839474
0.00426613
0.0020517
0.000935192
0.000404591
0.000166524
6.5241e-05
2.43257e-05
8.56122e-06
2.82948e-06
8.67139e-07
2.754e-07
1.43978e-07
1.39013e-07
2.52131e-07
3.55972e-07
3.7688e-07
1.25379e-07
4.68287e-07
6.36316e-07
8.75926e-07
9.02665e-07
9.32277e-07
7.97389e-07
5.24521e-07
2.4602e-07
7.95939e-08
1.64095e-08
2.74339e-09
1.08212e-09
3.19987e-09
3.07551e-07
1.42678e-05
0.000248677
0.0019634
0.00842812
0.0230755
0.0456729
0.071561
0.0945654
0.110347
0.117728
0.119232
0.107461
0.0829988
0.0632847
0.0457491
0.030513
0.0188885
0.0109599
0.00598531
0.00308363
0.00150162
0.000692037
0.000302337
0.000125247
4.92888e-05
1.82922e-05
6.40338e-06
2.0619e-06
6.38823e-07
2.32967e-07
1.6219e-07
1.83655e-07
2.87287e-07
3.25335e-07
2.62412e-07
8.41571e-08
1.37064e-07
4.94503e-07
6.79599e-07
9.52829e-07
9.7693e-07
9.9869e-07
8.70933e-07
6.1379e-07
3.24148e-07
1.20764e-07
3.14817e-08
7.86264e-09
4.13611e-09
3.30194e-08
1.7007e-06
4.04985e-05
0.000427913
0.00237333
0.00803889
0.0188298
0.033492
0.0484761
0.0600789
0.0664314
0.0682113
0.0641207
0.0502581
0.0387414
0.0284199
0.0191854
0.0120449
0.00710556
0.00394332
0.00206172
0.00101721
0.00047442
0.000209103
8.73051e-05
3.42699e-05
1.27231e-05
4.32769e-06
1.40097e-06
4.45228e-07
2.15302e-07
1.8409e-07
2.24717e-07
2.6627e-07
2.76962e-07
1.53735e-07
2.31143e-08
8.274e-08
1.16195e-07
5.3669e-07
6.79632e-07
9.87492e-07
1.03421e-06
1.05071e-06
9.57935e-07
7.43688e-07
4.43434e-07
1.96849e-07
6.71179e-08
2.243e-08
1.35049e-08
1.35138e-07
3.89044e-06
5.7556e-05
0.000433042
0.00191047
0.00557049
0.0118018
0.0195219
0.0266784
0.0314811
0.0334132
0.03345
0.0277722
0.0213976
0.0159938
0.0110078
0.00703437
0.00422849
0.00238948
0.00126941
0.000635441
0.000299609
0.000133452
5.56709e-05
2.1993e-05
7.91251e-06
2.73548e-06
8.44437e-07
3.2681e-07
2.00983e-07
1.92039e-07
2.19161e-07
2.40855e-07
1.69067e-07
8.40596e-08
1.45448e-08
2.94547e-08
1.00721e-07
1.13553e-07
4.6602e-07
6.35484e-07
9.73331e-07
1.0621e-06
1.0891e-06
1.05801e-06
8.90914e-07
6.10109e-07
3.37373e-07
1.43679e-07
5.8476e-08
3.68074e-08
2.49723e-07
4.33339e-06
4.63374e-05
0.000281034
0.00108041
0.00288786
0.00577796
0.00916985
0.0120849
0.0138282
0.0143563
0.0136247
0.0105285
0.00802743
0.00568074
0.00372721
0.00228757
0.00131903
0.000713566
0.000362174
0.000173155
7.71979e-05
3.25962e-05
1.24451e-05
4.63032e-06
1.44927e-06
5.44127e-07
2.32598e-07
1.90786e-07
1.88502e-07
2.0225e-07
1.65747e-07
1.17675e-07
2.86075e-08
9.57715e-09
2.09064e-08
2.69426e-08
5.33275e-08
7.64621e-08
3.77863e-07
5.20784e-07
8.87484e-07
1.05372e-06
1.12222e-06
1.12163e-06
1.02834e-06
8.22667e-07
5.50573e-07
2.97914e-07
1.45262e-07
9.25464e-08
2.47703e-07
2.75327e-06
2.32597e-05
0.000124394
0.000444381
0.00114022
0.00222609
0.00346997
0.00450454
0.00506937
0.00520907
0.00459691
0.0034952
0.00258165
0.00175455
0.00110676
0.000653156
0.000359882
0.000186054
8.92738e-05
4.05302e-05
1.6522e-05
6.63691e-06
2.15755e-06
8.67286e-07
2.64806e-07
1.97995e-07
1.74e-07
1.7358e-07
1.47939e-07
1.27459e-07
2.34259e-08
1.82281e-08
8.63013e-09
1.06653e-08
1.25481e-08
2.08016e-08
5.65327e-08
7.37884e-08
2.40769e-07
3.7213e-07
6.83162e-07
9.24259e-07
1.107e-06
1.15189e-06
1.10542e-06
1.02616e-06
8.29532e-07
5.66121e-07
3.29453e-07
2.0548e-07
2.00292e-07
1.17975e-06
7.75316e-06
3.83296e-05
0.000132705
0.000337347
0.000660218
0.00103428
0.00134334
0.0015037
0.00153514
0.00130037
0.000986807
0.00070581
0.000464293
0.000281266
0.000159225
8.29899e-05
4.08068e-05
1.79034e-05
7.78243e-06
2.68236e-06
1.16983e-06
2.94354e-07
2.3109e-07
1.54912e-07
1.47631e-07
1.37076e-07
1.12801e-07
2.88404e-08
2.2784e-08
1.17154e-08
8.69589e-09
9.78492e-09
1.02811e-08
1.33731e-08
1.44905e-08
3.39754e-08
4.11097e-08
1.33515e-07
2.10594e-07
4.10974e-07
6.32853e-07
8.95703e-07
1.0782e-06
1.14182e-06
1.15198e-06
1.05464e-06
9.21395e-07
6.8616e-07
4.53221e-07
3.26461e-07
4.18791e-07
1.90158e-06
8.12623e-06
2.77686e-05
7.20086e-05
0.000144734
0.000232221
0.00030744
0.000347551
0.000355331
0.00029835
0.000226771
0.000157314
0.000100724
5.83985e-05
3.17957e-05
1.53818e-05
7.31474e-06
2.75541e-06
1.28758e-06
3.45087e-07
2.79417e-07
8.56458e-08
1.44383e-07
1.0309e-07
1.03516e-07
3.5467e-08
2.56691e-08
8.9074e-09
9.86138e-09
9.09211e-09
9.59811e-09
1.05741e-08
1.08739e-08
1.19713e-08
1.27468e-08
2.30197e-08
2.89285e-08
6.06339e-08
9.57025e-08
1.76848e-07
2.9478e-07
4.72447e-07
6.8837e-07