/*--------------------------------*- C++ -*----------------------------------*\
| =========                 |                                                 |
| \\      /  F ield         | OpenFOAM: The Open Source CFD Toolbox           |
|  \\    /   O peration     | Version:  dev                                   |
|   \\  /    A nd           | Web:      www.OpenFOAM.org                      |
|    \\/     M anipulation  |                                                 |
\*---------------------------------------------------------------------------*/
FoamFile
{
    version     2.0;
    format      ascii;
    class       volScalarField;
    location    "602.0586";
    object      rho;
}
// * * * * * * * * * * * * * * * * * * * * * * * * * * * * * * * * * * * * * //

dimensions      [0 0 0 0 0 0 0];

internalField   nonuniform List<scalar> 
2500
(
8.95371e-09
1.04257e-08
1.11359e-08
1.19122e-08
1.15179e-08
1.23307e-08
1.33197e-08
1.87584e-08
2.1353e-08
3.7134e-08
4.37841e-08
7.53353e-08
1.01642e-07
1.73975e-07
2.5208e-07
4.10661e-07
5.93703e-07
8.26185e-07
1.08021e-06
1.35465e-06
1.61373e-06
1.83811e-06
1.98705e-06
2.05124e-06
2.06273e-06
2.0625e-06
2.06519e-06
2.12246e-06
2.39249e-06
2.90664e-06
3.7224e-06
4.78647e-06
5.46131e-06
5.76916e-06
5.40988e-06
4.62077e-06
3.52507e-06
2.34857e-06
1.43779e-06
7.87786e-07
4.04951e-07
2.04936e-07
1.18836e-07
9.09958e-08
6.94028e-08
4.84635e-08
2.64646e-08
1.73221e-08
9.71209e-09
8.70886e-09
1.18654e-08
1.31099e-08
1.33963e-08
1.25412e-08
1.37538e-08
1.3887e-08
2.53636e-08
2.44144e-08
4.64083e-08
4.58507e-08
7.53307e-08
8.96731e-08
1.56902e-07
2.19198e-07
3.58296e-07
4.98399e-07
7.11719e-07
9.31445e-07
1.15763e-06
1.37364e-06
1.51532e-06
1.56685e-06
1.58604e-06
1.60081e-06
1.59058e-06
1.54499e-06
1.454e-06
1.32483e-06
1.17753e-06
1.0271e-06
8.87019e-07
7.7724e-07
7.09698e-07
7.31316e-07
8.50623e-07
1.02401e-06
1.3504e-06
1.34037e-06
1.12676e-06
7.92718e-07
5.0467e-07
2.98233e-07
1.77919e-07
1.05931e-07
7.77837e-08
5.48152e-08
4.62312e-08
2.43342e-08
1.82887e-08
9.23572e-09
1.51888e-08
1.49441e-08
1.35945e-08
1.39037e-08
1.55652e-08
2.39417e-08
2.79687e-08
4.46525e-08
4.60755e-08
6.44445e-08
7.47927e-08
1.09472e-07
1.58562e-07
2.45463e-07
3.5546e-07
5.05091e-07
6.41661e-07
7.62055e-07
8.09779e-07
8.20734e-07
8.3005e-07
8.34792e-07
8.27477e-07
8.01117e-07
7.54182e-07
6.93489e-07
6.29181e-07
5.64911e-07
4.98745e-07
4.31084e-07
3.66116e-07
3.05562e-07
2.5227e-07
2.06328e-07
1.71464e-07
1.54658e-07
1.94736e-07
2.79566e-07
3.76675e-07
4.08864e-07
3.5255e-07
2.58688e-07
1.62157e-07
1.09115e-07
6.86874e-08
5.83483e-08
4.33609e-08
3.69776e-08
2.38432e-08
1.36864e-08
1.76901e-08
1.50421e-08
1.4514e-08
1.47969e-08
2.40787e-08
3.15777e-08
4.30882e-08
4.62866e-08
5.38705e-08
6.12919e-08
7.97326e-08
1.08041e-07
1.57323e-07
2.15945e-07
2.7925e-07
3.30921e-07
3.55125e-07
3.64971e-07
3.71574e-07
3.71234e-07
3.60722e-07
3.39585e-07
3.08735e-07
2.71666e-07
2.31413e-07
1.91781e-07
1.56892e-07
1.28752e-07
1.07909e-07
9.32847e-08
8.30241e-08
7.73053e-08
7.24821e-08
6.59659e-08
5.6756e-08
4.52091e-08
3.80872e-08
4.24198e-08
6.05976e-08
9.27148e-08
1.26612e-07
1.26524e-07
1.14114e-07
7.79496e-08
6.35787e-08
4.24091e-08
4.11812e-08
3.40302e-08
2.9275e-08
1.82141e-08
1.8185e-08
1.50915e-08
1.37502e-08
2.4614e-08
2.81173e-08
4.29551e-08
4.65401e-08
4.97622e-08
5.1726e-08
5.87219e-08
6.73243e-08
8.61061e-08
1.06102e-07
1.26309e-07
1.36491e-07
1.4239e-07
1.47136e-07
1.49409e-07
1.45725e-07
1.34493e-07
1.17303e-07
9.72851e-08
7.72136e-08
5.88136e-08
4.28315e-08
2.99052e-08
2.03344e-08
1.36843e-08
9.63339e-09
7.07643e-09
6.27953e-09
6.81247e-09
8.30221e-09
1.03756e-08
1.23463e-08
1.27907e-08
1.26296e-08
1.34362e-08
1.59737e-08
2.31219e-08
3.37238e-08
4.63073e-08
4.92206e-08
4.94371e-08
3.51016e-08
3.0384e-08
2.82431e-08
2.90457e-08
2.7009e-08
2.25224e-08
1.66894e-08
1.57603e-08
2.01992e-08
2.6992e-08
4.34989e-08
4.55406e-08
4.73014e-08
4.45682e-08
4.01978e-08
3.78964e-08
3.98904e-08
4.34532e-08
4.79465e-08
5.04781e-08
5.30452e-08
5.48088e-08
5.47835e-08
5.17084e-08
4.47736e-08
3.55578e-08
2.62669e-08
1.81989e-08
1.18694e-08
7.23518e-09
4.05708e-09
2.07115e-09
9.87825e-10
4.5921e-10
2.39123e-10
1.32637e-10
1.08122e-10
1.32812e-10
2.25155e-10
4.62904e-10
9.54699e-10
1.7422e-09
2.86546e-09
4.3743e-09
7.08625e-09
1.12947e-08
1.82544e-08
2.5481e-08
3.00368e-08
2.92196e-08
2.72129e-08
2.2109e-08
1.92724e-08
2.04097e-08
2.22635e-08
2.12252e-08
1.5603e-08
1.71543e-08
2.49892e-08
4.09531e-08
4.52575e-08
4.53491e-08
4.05188e-08
3.15173e-08
2.29159e-08
1.90583e-08
1.84323e-08
1.86203e-08
1.86836e-08
1.89231e-08
1.88872e-08
1.8255e-08
1.63893e-08
1.33773e-08
9.73331e-09
6.32712e-09
3.69172e-09
1.95294e-09
9.26441e-10
3.81859e-10
1.27149e-10
3.16631e-11
6.31337e-12
6.08947e-13
-1.0818e-12
-1.74664e-12
-2.30209e-12
-2.60323e-12
-2.30812e-12
3.84035e-13
1.36465e-11
7.13972e-11
2.69482e-10
9.052e-10
2.54506e-09
6.117e-09
1.18032e-08
1.97753e-08
2.59832e-08
2.67273e-08
2.55204e-08
2.22523e-08
1.82346e-08
1.60943e-08
1.71028e-08
1.83169e-08
1.5175e-08
2.12118e-08
3.6106e-08
4.51024e-08
4.58198e-08
4.07585e-08
2.90251e-08
1.68163e-08
1.02008e-08
7.84077e-09
7.15076e-09
6.85903e-09
6.60424e-09
6.16181e-09
5.55112e-09
4.69415e-09
3.63962e-09
2.46798e-09
1.42969e-09
6.9273e-10
2.79734e-10
9.17012e-11
2.26246e-11
3.0198e-12
-6.72059e-13
-1.00714e-12
-1.37889e-12
-1.76418e-12
-2.16678e-12
-2.6389e-12
-3.10588e-12
-3.49978e-12
-3.74136e-12
-3.89898e-12
-3.88015e-12
-3.36095e-12
5.68275e-12
9.31576e-11
6.21227e-10
2.48911e-09
6.8632e-09
1.42003e-08
2.25683e-08
2.74871e-08
2.70802e-08
2.48084e-08
2.04787e-08
1.67142e-08
1.53227e-08
1.55216e-08
1.73593e-08
2.99695e-08
4.31172e-08
4.64535e-08
4.23533e-08
3.04285e-08
1.60404e-08
7.05176e-09
3.60443e-09
2.66634e-09
2.35392e-09
2.14345e-09
1.89516e-09
1.60803e-09
1.28052e-09
9.47815e-10
6.16272e-10
3.3363e-10
1.39154e-10
4.1814e-11
8.23626e-12
4.50583e-13
-3.85667e-13
-6.08392e-13
-8.88415e-13
-1.22692e-12
-1.62115e-12
-2.06951e-12
-2.56751e-12
-3.10217e-12
-3.64302e-12
-4.14341e-12
-4.55338e-12
-4.8253e-12
-4.84771e-12
-4.80576e-12
-5.00579e-12
7.96979e-13
8.78378e-11
6.9448e-10
2.97163e-09
8.5098e-09
1.71973e-08
2.53843e-08
3.05379e-08
2.95143e-08
2.57351e-08
2.04925e-08
1.63235e-08
1.43144e-08
2.24164e-08
3.84214e-08
4.61977e-08
4.42883e-08
3.40511e-08
1.80587e-08
6.58483e-09
2.09891e-09
1.00857e-09
7.44942e-10
6.33919e-10
5.40933e-10
4.4354e-10
3.41239e-10
2.47578e-10
1.62477e-10
9.09761e-11
3.86866e-11
1.07447e-11
1.39278e-12
-1.59006e-13
-3.03839e-13
-4.71901e-13
-6.76766e-13
-9.33258e-13
-1.25223e-12
-1.63996e-12
-2.10078e-12
-2.63221e-12
-3.22217e-12
-3.84519e-12
-4.4599e-12
-5.01402e-12
-5.45098e-12
-5.6865e-12
-5.78885e-12
-5.70339e-12
-5.28385e-12
2.85566e-12
1.18905e-10
8.99949e-10
3.87838e-09
1.08311e-08
2.04534e-08
2.90699e-08
3.44566e-08
3.25076e-08
2.68014e-08
2.09083e-08
1.48751e-08
2.98106e-08
4.48685e-08
4.60853e-08
3.90288e-08
2.26022e-08
7.99435e-09
1.82936e-09
4.531e-10
2.23787e-10
1.70152e-10
1.41282e-10
1.1568e-10
8.99152e-11
6.68841e-11
4.6443e-11
2.88825e-11
1.44474e-11
5.01147e-12
7.84967e-13
-1.19514e-13
-2.2489e-13
-3.39646e-13
-4.74811e-13
-6.45595e-13
-8.66693e-13
-1.14989e-12
-1.50389e-12
-1.93691e-12
-2.45272e-12
-3.04726e-12
-3.70423e-12
-4.39095e-12
-5.05813e-12
-5.64414e-12
-6.07565e-12
-6.33334e-12
-6.29265e-12
-5.79749e-12
-4.90918e-12
8.24578e-12
1.82441e-10
1.29637e-09
5.31845e-09
1.37344e-08
2.45272e-08
3.35825e-08
3.85511e-08
3.56062e-08
2.73178e-08
1.85259e-08
3.8179e-08
4.68011e-08
4.36182e-08
2.91755e-08
1.14642e-08
2.43042e-09
3.35387e-10
7.14739e-11
4.07417e-11
3.23734e-11
2.70089e-11
2.1978e-11
1.74114e-11
1.31063e-11
9.04535e-12
5.22612e-12
2.09852e-12
3.99872e-13
-1.44784e-13
-2.10629e-13
-2.70842e-13
-3.44335e-13
-4.4149e-13
-5.71985e-13
-7.45966e-13
-9.73414e-13
-1.26402e-12
-1.62911e-12
-2.07857e-12
-2.61769e-12
-3.24219e-12
-3.93271e-12
-4.65084e-12
-5.33919e-12
-5.92657e-12
-6.3534e-12
-6.4933e-12
-6.17117e-12
-5.40075e-12
-4.12766e-12
2.05894e-11
3.15902e-10
2.02284e-09
7.49313e-09
1.76753e-08
2.98806e-08
3.90503e-08
4.04809e-08
3.72232e-08
2.36743e-08
4.47811e-08
4.67914e-08
3.72311e-08
1.78374e-08
4.28736e-09
4.95708e-10
3.90445e-11
8.45774e-12
5.44926e-12
4.44817e-12
3.78032e-12
3.20987e-12
2.51281e-12
1.87e-12
1.06757e-12
3.51841e-13
-1.00537e-13
-2.03674e-13
-2.52201e-13
-2.75617e-13
-2.97629e-13
-3.32806e-13
-3.89589e-13
-4.73653e-13
-5.90276e-13
-7.45709e-13
-9.48344e-13
-1.21024e-12
-1.54562e-12
-1.96831e-12
-2.48697e-12
-3.09886e-12
-3.78308e-12
-4.49577e-12
-5.17272e-12
-5.74119e-12
-6.08719e-12
-6.05589e-12
-5.56904e-12
-4.66915e-12
-2.13095e-12
5.353e-11
6.0383e-10
3.3238e-09
1.07734e-08
2.34186e-08
3.64124e-08
4.48931e-08
4.29352e-08
3.2103e-08
4.81315e-08
4.48942e-08
2.75437e-08
8.5007e-09
1.13101e-09
6.27739e-11
2.03969e-12
-5.50503e-15
-3.24022e-13
-4.82527e-13
-5.19635e-13
-5.0697e-13
-4.24225e-13
-4.37061e-13
-4.69515e-13
-4.738e-13
-4.51126e-13
-4.11111e-13
-3.65349e-13
-3.26729e-13
-3.04074e-13
-3.01292e-13
-3.19084e-13
-3.56642e-13
-4.12509e-13
-4.8642e-13
-5.82726e-13
-7.11234e-13
-8.90484e-13
-1.14315e-12
-1.47738e-12
-1.90947e-12
-2.44471e-12
-3.06386e-12
-3.71619e-12
-4.33731e-12
-4.84237e-12
-5.11313e-12
-5.02627e-12
-4.51713e-12
-3.11651e-12
3.55278e-12
1.43869e-10
1.22688e-09
5.61533e-09
1.59345e-08
3.08079e-08
4.3791e-08
4.77662e-08
3.94077e-08
4.9253e-08
3.89525e-08
1.68238e-08
3.08733e-09
2.05456e-10
3.76032e-12
-1.08107e-12
-1.34126e-12
-1.55524e-12
-1.64131e-12
-1.59873e-12
-1.48641e-12
-1.34147e-12
-1.18017e-12
-1.01245e-12
-8.44309e-13
-6.84405e-13
-5.4343e-13
-4.29082e-13
-3.44184e-13
-2.8744e-13
-2.545e-13
-2.39289e-13
-2.35015e-13
-2.34026e-13
-2.25591e-13
-2.07102e-13
-1.90171e-13
-1.66352e-13
-1.72178e-13
-1.00558e-13
-1.10054e-13
-3.40093e-13
-8.12102e-13
-1.14445e-12
-1.85008e-12
-2.48383e-12
-2.99726e-12
-3.38162e-12
-3.41845e-12
-2.84314e-12
-1.42384e-12
2.67013e-11
3.90346e-10
2.5433e-09
9.57191e-09
2.33118e-08
3.98855e-08
4.97744e-08
4.55251e-08
4.81261e-08
3.01245e-08
8.4644e-09
8.42303e-10
2.4716e-11
-1.28374e-12
-1.81527e-12
-2.26127e-12
-2.54295e-12
-2.62266e-12
-2.52169e-12
-2.29245e-12
-1.99155e-12
-1.66473e-12
-1.3444e-12
-1.05242e-12
-8.0218e-13
-5.99665e-13
-4.44582e-13
-3.32157e-13
-2.54503e-13
-2.01096e-13
-1.60548e-13
-1.24661e-13
-6.32654e-14
4.66486e-14
4.33655e-13
1.29619e-12
2.8225e-12
5.11904e-12
7.82709e-12
1.03558e-11
1.20282e-11
1.19061e-11
1.02924e-11
7.57251e-12
4.4723e-12
1.70518e-12
-1.13875e-13
-1.15915e-12
-1.55497e-12
-9.56087e-13
2.53442e-12
1.10293e-10
1.03483e-09
5.15222e-09
1.60418e-08
3.32511e-08
4.89748e-08
4.89647e-08
4.45916e-08
2.03207e-08
3.43571e-09
1.76977e-10
6.70169e-13
-2.12753e-12
-2.64889e-12
-3.15732e-12
-3.44468e-12
-3.46247e-12
-3.24959e-12
-2.88037e-12
-2.43196e-12
-1.96817e-12
-1.5342e-12
-1.157e-12
-8.4822e-13
-6.08222e-13
-4.30214e-13
-3.03543e-13
-2.15139e-13
-1.48922e-13
-9.15374e-14
-5.48074e-15
3.23514e-13
1.44357e-12
4.35118e-12
1.0536e-11
2.14087e-11
3.72199e-11
5.60096e-11
7.38325e-11
8.59157e-11
8.76894e-11
8.04625e-11
6.57432e-11
4.79417e-11
3.12365e-11
1.75376e-11
8.02478e-12
2.83148e-12
5.53866e-13
2.2756e-12
2.40807e-11
3.87648e-10
2.58908e-09
1.01421e-08
2.56336e-08
4.52764e-08
5.24257e-08
3.832e-08
1.20101e-08
1.1311e-09
3.21085e-11
-1.73458e-12
-2.55926e-12
-3.38066e-12
-3.98569e-12
-4.24626e-12
-4.16371e-12
-3.81481e-12
-3.30165e-12
-2.72058e-12
-2.14682e-12
-1.62976e-12
-1.19505e-12
-8.49841e-13
-5.88902e-13
-4.00102e-13
-2.68276e-13
-1.76254e-13
-1.02018e-13
-1.89524e-14
3.85688e-13
2.19966e-12
8.39837e-12
2.52214e-11
6.19022e-11
1.26782e-10
2.2019e-10
3.28627e-10
4.2692e-10
4.90439e-10
4.84234e-10
4.4123e-10
3.57783e-10
2.61928e-10
1.74841e-10
1.05702e-10
5.75223e-11
2.79195e-11
1.15646e-11
5.78419e-12
1.43442e-11
1.35215e-10
1.2245e-09
6.09309e-09
1.85433e-08
3.9378e-08
5.27262e-08
3.0767e-08
6.0876e-09
3.05087e-10
8.06547e-12
-2.32357e-12
-3.20934e-12
-4.14217e-12
-4.76002e-12
-4.94587e-12
-4.73976e-12
-4.25146e-12
-3.60576e-12
-2.91235e-12
-2.25181e-12
-1.67328e-12
-1.19876e-12
-8.3047e-13
-5.58199e-13
-3.6549e-13
-2.33669e-13
-1.42239e-13
-6.14005e-14
1.52633e-13
1.80021e-12
1.02007e-11
4.1944e-11
1.33673e-10
3.40189e-10
7.08008e-10
1.22955e-09
1.81294e-09
2.30259e-09
2.58172e-09
2.45864e-09
2.16052e-09
1.70881e-09
1.21756e-09
7.93996e-10
4.75102e-10
2.60086e-10
1.30868e-10
5.9966e-11
2.34948e-11
1.98037e-11
5.57712e-11
5.8062e-10
3.53244e-09
1.29734e-08
3.24277e-08
5.18246e-08
2.27494e-08
2.59577e-09
7.79441e-11
3.53037e-12
-2.66228e-12
-3.80541e-12
-4.85582e-12
-5.45419e-12
-5.54421e-12
-5.21224e-12
-4.59622e-12
-3.83702e-12
-3.05189e-12
-2.32292e-12
-1.69707e-12
-1.19258e-12
-8.07509e-13
-5.27819e-13
-3.33741e-13
-2.03854e-13
-1.14955e-13
-2.72577e-14
5.23858e-13
6.17262e-12
4.18816e-11
1.95534e-10
6.76214e-10
1.80115e-09
3.81678e-09
6.61164e-09
9.5827e-09
1.18376e-08
1.27446e-08
1.17748e-08
9.89313e-09
7.52104e-09
5.16932e-09
3.25297e-09
1.88729e-09
1.01158e-09
5.03031e-10
2.32215e-10
9.52963e-11
4.08446e-11
6.0038e-11
2.58767e-10
2.02374e-09
8.89402e-09
2.57956e-08
4.9626e-08
1.5322e-08
9.11211e-10
2.66223e-11
1.54432e-12
-2.99753e-12
-4.39791e-12
-5.51593e-12
-6.0625e-12
-6.05268e-12
-5.60859e-12
-4.88592e-12
-4.0346e-12
-3.17541e-12
-2.39027e-12
-1.72413e-12
-1.19269e-12
-7.91496e-13
-5.0405e-13
-3.08142e-13
-1.80013e-13
-9.43143e-14
-4.10704e-15
1.09303e-12
1.60696e-11
1.50896e-10
8.48613e-10
3.27613e-09
9.23414e-09
1.99512e-08
3.43375e-08
4.85891e-08
5.81007e-08
5.9152e-08
5.30474e-08
4.24675e-08
3.08175e-08
2.03212e-08
1.22942e-08
6.8795e-09
3.57562e-09
1.73342e-09
7.8566e-10
3.28261e-10
1.20964e-10
8.42538e-11
1.83405e-10
1.18434e-09
6.06418e-09
2.00548e-08
4.64574e-08
9.19008e-09
2.60039e-10
1.35095e-11
2.65018e-14
-3.33354e-12
-4.96846e-12
-6.10233e-12
-6.58329e-12
-6.48829e-12
-5.95745e-12
-5.15347e-12
-4.23009e-12
-3.30965e-12
-2.47422e-12
-1.76842e-12
-1.20762e-12
-7.86936e-13
-4.88753e-13
-2.8903e-13
-1.61526e-13
-7.91665e-14
1.2721e-14
1.4984e-12
2.97624e-11
4.40836e-10
3.33235e-09
1.5189e-08
4.61431e-08
1.01632e-07
1.7243e-07
2.3576e-07
2.7045e-07
2.58704e-07
2.22818e-07
1.69987e-07
1.17381e-07
7.40581e-08
4.30339e-08
2.32015e-08
1.1664e-08
5.4893e-09
2.4242e-09
1.00333e-09
3.73989e-10
1.53786e-10
2.03866e-10
6.73316e-10
4.14201e-09
1.55244e-08
4.27926e-08
4.71272e-09
6.82628e-11
7.00174e-12
-8.08181e-13
-3.60053e-12
-5.49088e-12
-6.59835e-12
-7.02118e-12
-6.86966e-12
-6.28323e-12
-5.42333e-12
-4.44445e-12
-3.47039e-12
-2.58512e-12
-1.83552e-12
-1.23926e-12
-7.93493e-13
-4.80576e-13
-2.75112e-13
-1.47185e-13
-6.81926e-14
3.40872e-15
1.33714e-12
3.88775e-11
8.48569e-10
1.17024e-08
6.74132e-08
2.24149e-07
5.02075e-07
8.31718e-07
1.08717e-06
1.17426e-06
1.06749e-06
8.681e-07
6.29269e-07
4.13848e-07
2.49803e-07
1.39471e-07
7.24927e-08
3.52508e-08
1.60954e-08
6.91893e-09
2.80816e-09
1.0567e-09
3.64547e-10
2.69895e-10
5.83145e-10
2.89782e-09
1.19914e-08
3.91332e-08
1.97725e-09
2.81819e-11
2.82596e-12
-1.56172e-12
-4.13369e-12
-5.94598e-12
-6.99351e-12
-7.38303e-12
-7.21064e-12
-6.60075e-12
-5.70804e-12
-4.68649e-12
-3.66247e-12
-2.72425e-12
-1.9236e-12
-1.28354e-12
-8.06607e-13
-4.75363e-13
-2.64302e-13
-1.35967e-13
-6.06627e-14
-6.74407e-15
6.45108e-13
2.30559e-11
7.6072e-10
3.18548e-08
2.83017e-07
1.06942e-06
2.41691e-06
3.83934e-06
4.72449e-06
4.73517e-06
4.08542e-06
3.12288e-06
2.14574e-06
1.34546e-06
7.78096e-07
4.17972e-07
2.09747e-07
9.87879e-08
4.38206e-08
1.83614e-08
7.29247e-09
2.72665e-09
9.17321e-10
4.19483e-10
6.20693e-10
2.00073e-09
9.57028e-09
3.57554e-08
8.37348e-10
2.27674e-11
7.91573e-13
-2.17204e-12
-4.5909e-12
-6.27834e-12
-7.28106e-12
-7.67227e-12
-7.51525e-12
-6.91201e-12
-6.00698e-12
-4.95318e-12
-3.8808e-12
-2.88426e-12
-2.02275e-12
-1.32885e-12
-8.16673e-13
-4.64944e-13
-2.53491e-13
-1.27201e-13
-5.53409e-14
-1.42261e-14
1.41492e-13
5.77829e-12
1.55129e-10
4.63627e-08
1.10863e-06
5.10244e-06
1.13949e-05
1.68408e-05
1.90595e-05
1.77192e-05
1.43089e-05
1.02912e-05
6.70953e-06
4.02045e-06
2.23291e-06
1.1565e-06
5.61597e-07
2.56806e-07
1.10942e-07
4.54089e-08
1.765e-08
6.49443e-09
2.18436e-09
7.65219e-10
7.51024e-10
1.82832e-09
7.32277e-09
3.30143e-08
7.76571e-10
2.32043e-11
-1.03853e-13
-2.60576e-12
-4.87046e-12
-6.4676e-12
-7.45836e-12
-7.88493e-12
-7.77547e-12
-7.20573e-12
-6.307e-12
-5.23055e-12
-4.11024e-12
-3.04627e-12
-2.10975e-12
-1.35051e-12
-8.07322e-13
-4.35075e-13
-2.36924e-13
-1.20275e-13
-5.10483e-14
-2.01762e-14
1.19568e-14
1.64474e-12
1.97611e-09
2.98464e-07
5.97954e-06
2.66229e-05
5.28136e-05
6.88667e-05
7.02582e-05
6.04765e-05
4.55798e-05
3.09044e-05
1.91898e-05
1.1026e-05
5.89777e-06
2.95379e-06
1.39232e-06
6.20045e-07
2.61591e-07
1.04764e-07
3.98585e-08
1.43751e-08
4.80963e-09
1.52992e-09
1.01029e-09
1.88101e-09
6.53245e-09
3.02792e-08
3.34641e-09
4.96564e-11
-1.52065e-13
-2.83588e-12
-4.98239e-12
-6.52975e-12
-7.53568e-12
-8.02371e-12
-7.98594e-12
-7.46929e-12
-6.58987e-12
-5.49539e-12
-4.31913e-12
-3.1623e-12
-2.1259e-12
-1.29116e-12
-7.42493e-13
-3.61265e-13
-2.05918e-13
-1.06198e-13
1.77531e-14
5.45838e-13
1.92657e-11
3.32968e-09
3.11683e-07
7.54327e-06
5.27944e-05
0.000146965
0.000227913
0.000252545
0.000233578
0.000185752
0.000131384
8.44435e-05
5.01887e-05
2.77495e-05
1.4344e-05
6.97232e-06
3.20141e-06
1.39257e-06
5.74929e-07
2.25487e-07
8.40069e-08
2.96954e-08
9.83299e-09
3.03871e-09
1.51317e-09
2.08457e-09
7.00893e-09
2.68302e-08
8.13955e-09
1.70934e-10
1.05042e-12
-2.79029e-12
-4.93136e-12
-6.47079e-12
-7.51405e-12
-8.08403e-12
-8.13548e-12
-7.68538e-12
-6.83279e-12
-5.716e-12
-4.45284e-12
-3.12759e-12
-1.9562e-12
-1.12439e-12
-5.18577e-13
2.0832e-12
1.95078e-11
1.23693e-10
6.85409e-10
4.57164e-09
5.89199e-08
1.34296e-06
2.03626e-05
0.000134717
0.00041066
0.000711321
0.000844584
0.000824924
0.000690743
0.000511005
0.00034192
0.000210013
0.000120053
6.41068e-05
3.21617e-05
1.52346e-05
6.83558e-06
2.91055e-06
1.17729e-06
4.52542e-07
1.65345e-07
5.74278e-08
1.88088e-08
5.76395e-09
2.43345e-09
2.53579e-09
8.04129e-09
2.2955e-08
1.71197e-08
5.344e-10
1.66015e-11
-2.42481e-12
-4.69667e-12
-6.27643e-12
-7.37579e-12
-8.04353e-12
-8.19668e-12
-7.82374e-12
-7.00262e-12
-5.84606e-12
-4.41132e-12
-2.67324e-12
-1.37838e-12
1.84964e-11
3.32214e-10
3.56016e-09
2.70418e-08
1.54043e-07
7.23787e-07
3.38168e-06
1.90336e-05
0.00011329
0.00048758
0.00129967
0.00221406
0.00268328
0.00269319
0.00234942
0.00180837
0.00125953
0.000804513
0.000475647
0.000262706
0.000136127
6.66108e-05
3.08565e-05
1.35593e-05
5.65934e-06
2.24539e-06
8.47373e-07
3.04482e-07
1.04266e-07
3.38188e-08
1.0327e-08
3.94132e-09
3.4211e-09
9.43468e-09
1.92457e-08
3.08269e-08
1.59506e-09
9.12909e-11
-1.71885e-12
-4.25546e-12
-5.9338e-12
-7.1058e-12
-7.88186e-12
-8.14202e-12
-7.85219e-12
-7.06246e-12
-5.82747e-12
-4.01627e-12
-7.55388e-13
1.81564e-10
5.5132e-09
9.02846e-08
8.95043e-07
5.89145e-06
2.7722e-05
0.000100848
0.000314512
0.000904609
0.00228327
0.0045632
0.0069433
0.00815134
0.00818546
0.00730728
0.00581309
0.00419936
0.00278853
0.00171443
0.000981546
0.000526665
0.000266342
0.000127637
5.7953e-05
2.49805e-05
1.02363e-05
3.99183e-06
1.48323e-06
5.25935e-07
1.78113e-07
5.72623e-08
1.73907e-08
6.27797e-09
4.8497e-09
9.57755e-09
1.69203e-08
5.28184e-08
4.61829e-09
3.83991e-10
3.78179e-12
-3.58473e-12
-5.43079e-12
-6.69417e-12
-7.58385e-12
-7.94713e-12
-7.74092e-12
-6.98403e-12
-5.64329e-12
-3.10851e-12
2.1192e-10
1.32993e-08
3.87294e-07
5.77946e-06
4.87746e-05
0.000259024
0.000949167
0.00258798
0.00562042
0.0102372
0.015913
0.0209137
0.0231738
0.0229606
0.020673
0.0168755
0.0126166
0.00870015
0.00556791
0.00331951
0.00185122
0.000970731
0.000481332
0.000226391
0.000100907
4.27473e-05
1.72392e-05
6.62779e-06
2.43285e-06
8.53861e-07
2.86539e-07
9.13498e-08
2.75869e-08
9.6555e-09
6.85008e-09
9.81425e-09
1.90144e-08
8.97703e-08
1.26273e-08
1.49837e-09
5.94064e-11
-2.71278e-12
-4.75704e-12
-6.13656e-12
-7.14052e-12
-7.5939e-12
-7.46834e-12
-6.77302e-12
-5.53026e-12
2.84971e-11
5.42276e-09
3.27374e-07
8.62525e-06
0.000109362
0.000747077
0.00311019
0.0088335
0.0187227
0.0316947
0.044966
0.0548427
0.0585682
0.0575345
0.0523026
0.0438236
0.0339031
0.0243402
0.0162417
0.0101055
0.00587753
0.00320737
0.00165013
0.000804084
0.000371702
0.00016301
6.80638e-05
2.70987e-05
1.0304e-05
3.74702e-06
1.30427e-06
4.34146e-07
1.37353e-07
4.14497e-08
1.42388e-08
9.2772e-09
1.03333e-08
2.68572e-08
1.46714e-07
3.27432e-08
5.25946e-09
3.73389e-10
2.45289e-12
-3.93761e-12
-5.43146e-12
-6.5465e-12
-7.0712e-12
-7.01746e-12
-6.41907e-12
-5.27802e-12
3.54542e-10
5.8385e-08
3.31868e-06
7.5876e-05
0.000792967
0.00434814
0.0144496
0.0332776
0.0591162
0.0869543
0.109569
0.12021
0.120764
0.113672
0.0992019
0.0802735
0.060417
0.0423264
0.0276301
0.0168277
0.00958204
0.00512266
0.00258632
0.00123913
0.00056434
0.000244532
0.000101065
3.98706e-05
1.50372e-05
5.42724e-06
1.87505e-06
6.19173e-07
1.94561e-07
5.88018e-08
1.98889e-08
1.16475e-08
1.20096e-08
4.49236e-08
2.26669e-07
7.63419e-08
1.73085e-08
1.87446e-09
7.86987e-11
-3.143e-12
-4.56324e-12
-5.79803e-12
-6.37313e-12
-6.35677e-12
-5.74637e-12
-3.49168e-12
1.86188e-09
3.1181e-07
1.65425e-05
0.000327926
0.00285765
0.0129595
0.0361295
0.0717822
0.113803
0.154407
0.184468
0.196752
0.19676
0.185041
0.161146
0.129644
0.09642
0.0665635
0.0428327
0.0257302
0.0144282
0.00757218
0.0037484
0.00176448
0.000792943
0.000340493
0.000139732
5.47813e-05
2.05394e-05
7.36849e-06
2.52946e-06
8.29921e-07
2.59867e-07
7.8685e-08
2.61176e-08
1.44188e-08
1.58995e-08
7.88168e-08
3.21883e-07
1.60753e-07
4.88178e-08
8.29624e-09
6.16732e-10
1.13437e-11
-3.40399e-12
-4.91011e-12
-5.51152e-12
-5.51062e-12
-5.09702e-12
3.41736e-12
5.45882e-09
9.36823e-07
4.71386e-05
0.000836622
0.00634582
0.0250389
0.0618315
0.1114
0.163686
0.210322
0.244366
0.260543
0.262911
0.254856
0.228966
0.187373
0.139342
0.0947701
0.059772
0.0353608
0.0196795
0.010274
0.00504313
0.00234862
0.00104554
0.000445806
0.000181873
7.09329e-05
2.64639e-05
9.44583e-06
3.2254e-06
1.05238e-06
3.27568e-07
9.85241e-08
3.20423e-08
1.82851e-08
2.52539e-08
1.33384e-07
4.19671e-07
2.85808e-07
1.22395e-07
2.95177e-08
3.83913e-09
1.95556e-10
-1.35578e-12
-3.96313e-12
-4.54319e-12
-4.52909e-12
-4.14158e-12
9.10848e-12
9.9243e-09
1.74949e-06
8.60687e-05
0.00143463
0.0100111
0.0363086
0.0833623
0.141564
0.198086
0.244666
0.277692
0.295943
0.301586
0.300809
0.286684
0.248352
0.190542
0.128935
0.0784003
0.0443933
0.0239943
0.0124056
0.00609099
0.00283823
0.00126162
0.000536581
0.000218267
8.4862e-05
3.15428e-05
1.12048e-05
3.80318e-06
1.2335e-06
3.82564e-07
1.14233e-07
3.79909e-08
2.36054e-08
4.61252e-08
2.0831e-07
4.9811e-07
4.39522e-07
2.49735e-07
9.03218e-08
1.79738e-08
1.82672e-09
6.61734e-11
-3.00133e-12
-3.60749e-12
-3.55596e-12
-3.28519e-12
1.24411e-11
1.23655e-08
2.23725e-06
0.000110987
0.00181585
0.0122676
0.042969
0.095657
0.15824
0.216167
0.26088
0.290342
0.306349
0.312552
0.313594
0.308256
0.278145
0.219821
0.152876
0.0951363
0.0540741
0.0287672
0.0146039
0.00711358
0.00330446
0.00146214
0.000618487
0.000250498
9.70691e-05
3.59612e-05
1.27484e-05
4.33453e-06
1.41369e-06
4.38526e-07
1.28292e-07
4.42655e-08
3.21039e-08
8.37693e-08
2.96152e-07
5.55011e-07
5.66171e-07
4.32126e-07
2.17299e-07
6.82124e-08
1.16698e-08
9.88171e-10
2.75491e-11
-2.85288e-12
-2.69133e-12
-2.48411e-12
1.07784e-11
1.17408e-08
2.25638e-06
0.000114205
0.00188399
0.0127383
0.0445128
0.0987976
0.162888
0.221475
0.265507
0.293147
0.307118
0.312027
0.312724
0.306144
0.27314
0.214465
0.149652
0.0940789
0.054086
0.0291624
0.015002
0.00737562
0.00345531
0.00153888
0.000652835
0.000264629
0.000102584
3.80016e-05
1.34475e-05
4.5414e-06
1.45498e-06
4.38297e-07
1.29996e-07
5.3135e-08
4.63589e-08
1.46905e-07
3.8089e-07
5.82114e-07
6.49131e-07
6.0517e-07
4.2458e-07
1.92959e-07
5.57836e-08
8.55415e-09
6.50803e-10
1.68743e-11
-2.08716e-12
-1.84542e-12
2.70775e-12
4.48009e-09
1.04621e-06
6.32441e-05
0.0012087
0.00919769
0.0352315
0.0838061
0.145416
0.20503
0.251769
0.282021
0.297794
0.303602
0.304492
0.294536
0.254446
0.196193
0.137185
0.0874173
0.0511456
0.0278792
0.0144008
0.00709984
0.00333458
0.00148875
0.000632815
0.000256886
9.96974e-05
3.6966e-05
1.30843e-05
4.4117e-06
1.40715e-06
4.21076e-07
1.28506e-07
6.59243e-08
7.2636e-08
2.20281e-07
4.44337e-07
5.47399e-07
6.94055e-07
7.24379e-07
6.41596e-07
4.22516e-07
1.82526e-07
5.03577e-08
7.34321e-09
5.47279e-10
1.62906e-11
-1.17764e-12
8.26329e-13
1.66606e-09
4.4934e-07
3.12712e-05
0.000683498
0.00586415
0.0248293
0.0638867
0.117671
0.173646
0.220811
0.253775
0.27241
0.279827
0.280994
0.26571
0.21964
0.166075
0.116528
0.0752018
0.0447401
0.0247991
0.0129501
0.0064238
0.00303079
0.00135871
0.000579589
0.000235952
9.17836e-05
3.40956e-05
1.20724e-05
4.05977e-06
1.28272e-06
3.81647e-07
1.27591e-07
8.2468e-08
1.15678e-07
2.9889e-07
4.68182e-07
4.10329e-07
7.12334e-07
7.73785e-07
7.95228e-07
6.76673e-07
4.38712e-07
1.8623e-07
5.07741e-08
7.6453e-09
6.43536e-10
3.45783e-11
7.98045e-12
4.03086e-10
1.15688e-07
1.00322e-05
0.00027145
0.00282485
0.014074
0.0411464
0.0833378
0.131709
0.175814
0.208842
0.228684
0.236881
0.238014
0.218315
0.173443
0.129958
0.0918639
0.0599788
0.0361907
0.0203802
0.0107998
0.00541348
0.00257379
0.00116136
0.000498156
0.000203656
7.94818e-05
2.95748e-05
1.04685e-05
3.4933e-06
1.09025e-06
3.27656e-07
1.30627e-07
1.05184e-07
1.88986e-07
3.68497e-07
4.41246e-07
2.94455e-07
5.83538e-07
8.00688e-07
8.46503e-07
8.6332e-07
7.28407e-07
4.72002e-07
2.05011e-07
5.89439e-08
1.0137e-08
1.1186e-09
1.92266e-10
1.51422e-10
2.06612e-08
2.24714e-06
7.75775e-05
0.00101725
0.00621417
0.0214767
0.0494862
0.0859736
0.122637
0.152174
0.170896
0.178894
0.179984
0.161154
0.125169
0.0941642
0.0672535
0.0443662
0.0271049
0.0154851
0.00832636
0.00422836
0.00203215
0.000925673
0.000400225
0.000164632
6.44651e-05
2.40237e-05
8.45065e-06
2.79203e-06
8.5538e-07
2.72454e-07
1.43185e-07
1.38678e-07
2.52819e-07
3.58915e-07
3.7941e-07
1.176e-07
4.56441e-07
6.33192e-07
8.77374e-07
9.03209e-07
9.33275e-07
7.98392e-07
5.26369e-07
2.47233e-07
8.01744e-08
1.65588e-08
2.77767e-09
1.10823e-09
3.40927e-09
3.24623e-07
1.4868e-05
0.000256296
0.00200601
0.0085546
0.0233104
0.0459789
0.0718663
0.0947948
0.110473
0.117724
0.119153
0.107156
0.0827044
0.0630476
0.0455384
0.0303427
0.0187679
0.0108817
0.00593821
0.00305722
0.00148774
0.00068519
0.000299159
0.000123858
4.87147e-05
1.80699e-05
6.32203e-06
2.03494e-06
6.31064e-07
2.3096e-07
1.61742e-07
1.83429e-07
2.8936e-07
3.28495e-07
2.65408e-07
7.33895e-08
1.37047e-07
5.25065e-07
6.73816e-07
9.54822e-07
9.77518e-07
9.99887e-07
8.7223e-07
6.15693e-07
3.25509e-07
1.21409e-07
3.16947e-08
7.93009e-09
4.16593e-09
3.48676e-08
1.78136e-06
4.19454e-05
0.000439124
0.00241792
0.00814473
0.018999
0.0336873
0.0486431
0.0601797
0.0664654
0.0682137
0.0639676
0.0500944
0.0386065
0.0282961
0.0190831
0.0119716
0.00705722
0.00391363
0.00204477
0.00100817
0.000469891
0.000206973
8.63648e-05
3.38826e-05
1.25708e-05
4.27454e-06
1.38354e-06
4.40568e-07
2.14456e-07
1.8398e-07
2.26093e-07
2.68094e-07
2.79481e-07
1.52342e-07
1.86086e-08
1.0229e-07
1.32007e-07
5.26758e-07
6.84081e-07
9.8542e-07
1.03519e-06
1.05134e-06
9.5935e-07
7.45381e-07
4.4457e-07
1.97545e-07
6.74279e-08
2.2579e-08
1.36111e-08
1.41747e-07
4.05485e-06
5.94134e-05
0.000443416
0.00194386
0.00563983
0.0119039
0.0196342
0.026772
0.0315332
0.0334437
0.0334182
0.0276873
0.0213325
0.015931
0.0109538
0.00699476
0.0042016
0.00237254
0.00125951
0.000630064
0.000296869
0.000132149
5.50925e-05
2.17499e-05
7.82359e-06
2.70173e-06
8.34815e-07
3.24165e-07
2.00974e-07
1.92585e-07
2.20407e-07
2.42912e-07
1.71424e-07
7.75819e-08
1.99196e-08
3.50462e-08
7.30663e-08
8.85542e-08
4.80067e-07
6.24967e-07
9.75882e-07
1.06223e-06
1.08982e-06
1.05914e-06
8.91831e-07
6.11112e-07
3.38194e-07
1.44293e-07
5.91086e-08
3.74991e-08
2.61372e-07
4.50572e-06
4.77768e-05
0.000287685
0.00109959
0.00292535
0.00583093
0.00922659
0.0121306
0.0138566
0.0143679
0.0136107
0.0104983
0.00800303
0.00565704
0.00370872
0.00227442
0.00131046
0.000708422
0.000359297
0.000171672
7.64784e-05
3.22744e-05
1.2318e-05
4.57578e-06
1.43603e-06
5.37035e-07
2.32325e-07
1.92016e-07
1.8961e-07
2.04796e-07
1.68588e-07
1.15342e-07
2.63748e-08
1.00641e-08
1.62356e-08
2.66363e-08
8.04433e-08
9.84677e-08
3.63598e-07
5.23335e-07
8.86703e-07
1.05403e-06
1.1228e-06
1.12231e-06
1.02905e-06
8.23498e-07
5.51359e-07
2.98241e-07
1.45767e-07
9.29075e-08
2.57877e-07
2.85692e-06
2.3988e-05
0.000127427
0.000452739
0.00115638
0.00224912
0.00349467
0.00452528
0.00508375
0.00521954
0.00459002
0.00348841
0.00257408
0.00174773
0.00110136
0.000649499
0.000357553
0.000184735
8.85597e-05
4.01875e-05
1.63657e-05
6.56686e-06
2.14265e-06
8.49014e-07
2.74507e-07
2.05811e-07
1.69732e-07
1.76814e-07
1.48866e-07
1.30823e-07
2.33498e-08
1.79486e-08
9.28002e-09
1.13312e-08
1.61557e-08
1.54318e-08
4.79288e-08
5.82998e-08
2.5305e-07
3.70124e-07
6.82454e-07
9.249e-07
1.10726e-06
1.15251e-06
1.10606e-06
1.02653e-06
8.29862e-07
5.66198e-07
3.30755e-07
2.06296e-07
2.04136e-07
1.22011e-06
8.00087e-06
3.93312e-05
0.000135427
0.000342673
0.000668067
0.00104334
0.00135193
0.00151045
0.00154037
0.00130027
0.000985855
0.000704182
0.000462786
0.000280019
0.000158421
8.24682e-05
4.05357e-05
1.77626e-05
7.72039e-06
2.66202e-06
1.13915e-06
3.15789e-07
2.32125e-07
1.3966e-07
1.56558e-07
1.31573e-07
1.20197e-07
2.47823e-08
1.97012e-08
1.15716e-08
8.99318e-09
1.02736e-08
1.04607e-08
1.19752e-08
1.1948e-08
3.91563e-08
3.67978e-08
1.34954e-07
2.10783e-07
4.10371e-07
6.33999e-07
8.9575e-07
1.07869e-06
1.14223e-06
1.15165e-06
1.05449e-06
9.20548e-07
6.86056e-07
4.53831e-07
3.28657e-07
4.28443e-07
1.96112e-06
8.35835e-06
2.8426e-05
7.33979e-05
0.000146988
0.000235101
0.000310437
0.000350083
0.000357416
0.000298819
0.00022695
0.000157165
0.000100557
5.81913e-05
3.16826e-05
1.53157e-05
7.26926e-06
2.73881e-06
1.2605e-06
3.48876e-07
2.5014e-07
1.16391e-07
1.39426e-07
1.13283e-07
1.02377e-07
3.28622e-08
2.48564e-08
1.21222e-08
9.7558e-09
9.2645e-09
9.74448e-09
1.04565e-08
1.01057e-08
1.08667e-08
8.01162e-09
2.46256e-08
2.74391e-08
6.02533e-08
9.53481e-08
1.76259e-07
2.94758e-07
4.72082e-07
6.87568e-07