/*--------------------------------*- C++ -*----------------------------------*\
| =========                 |                                                 |
| \\      /  F ield         | OpenFOAM: The Open Source CFD Toolbox           |
|  \\    /   O peration     | Version:  dev                                   |
|   \\  /    A nd           | Web:      www.OpenFOAM.org                      |
|    \\/     M anipulation  |                                                 |
\*---------------------------------------------------------------------------*/
FoamFile
{
    version     2.0;
    format      ascii;
    class       volScalarField;
    location    "602.0388";
    object      rho;
}
// * * * * * * * * * * * * * * * * * * * * * * * * * * * * * * * * * * * * * //

dimensions      [0 0 0 0 0 0 0];

internalField   nonuniform List<scalar> 
2500
(
8.82213e-09
1.03785e-08
1.10267e-08
1.17465e-08
1.13587e-08
1.26246e-08
1.29308e-08
2.0241e-08
2.22671e-08
3.85676e-08
4.48989e-08
7.64804e-08
9.57695e-08
1.73472e-07
2.59951e-07
4.13405e-07
5.93572e-07
8.24949e-07
1.07887e-06
1.35494e-06
1.61471e-06
1.83982e-06
1.98818e-06
2.05169e-06
2.0628e-06
2.06234e-06
2.06461e-06
2.12022e-06
2.38852e-06
2.8996e-06
3.7103e-06
4.77159e-06
5.44482e-06
5.75393e-06
5.39626e-06
4.60987e-06
3.51694e-06
2.34447e-06
1.43351e-06
7.87209e-07
4.04817e-07
2.05171e-07
1.20694e-07
9.36893e-08
6.94503e-08
4.89419e-08
2.72754e-08
1.8993e-08
9.84482e-09
8.61683e-09
1.17904e-08
1.32354e-08
1.31596e-08
1.23204e-08
1.3913e-08
1.49494e-08
2.36351e-08
2.81373e-08
4.24354e-08
4.86795e-08
7.54674e-08
9.28064e-08
1.59242e-07
2.11159e-07
3.58874e-07
5.03501e-07
7.11268e-07
9.32526e-07
1.15745e-06
1.37495e-06
1.51632e-06
1.56716e-06
1.58622e-06
1.60062e-06
1.59016e-06
1.54434e-06
1.45319e-06
1.32395e-06
1.17657e-06
1.02594e-06
8.85727e-07
7.75603e-07
7.07684e-07
7.2859e-07
8.4691e-07
1.01939e-06
1.34483e-06
1.33556e-06
1.12312e-06
7.90164e-07
5.02908e-07
2.97018e-07
1.78729e-07
1.07585e-07
7.97217e-08
5.4699e-08
4.72371e-08
2.50252e-08
1.90496e-08
9.14245e-09
1.52374e-08
1.49898e-08
1.36744e-08
1.35673e-08
1.54356e-08
2.40503e-08
2.87589e-08
4.32992e-08
4.69661e-08
6.23404e-08
7.538e-08
1.08299e-07
1.59934e-07
2.46574e-07
3.51824e-07
5.08899e-07
6.46058e-07
7.64497e-07
8.11139e-07
8.21456e-07
8.3043e-07
8.34984e-07
8.27536e-07
8.00995e-07
7.53877e-07
6.93061e-07
6.28664e-07
5.64334e-07
4.98131e-07
4.30476e-07
3.65499e-07
3.04974e-07
2.51696e-07
2.0576e-07
1.709e-07
1.53834e-07
1.93622e-07
2.78151e-07
3.74532e-07
4.07312e-07
3.5102e-07
2.57846e-07
1.61676e-07
1.0986e-07
6.84066e-08
5.7883e-08
4.31092e-08
3.72191e-08
2.39618e-08
1.37073e-08
1.76865e-08
1.52781e-08
1.46184e-08
1.53852e-08
2.35211e-08
2.96495e-08
4.41058e-08
4.53766e-08
5.50514e-08
6.12825e-08
7.9459e-08
1.08254e-07
1.57125e-07
2.17924e-07
2.83817e-07
3.32456e-07
3.56e-07
3.65624e-07
3.71834e-07
3.71451e-07
3.60674e-07
3.39579e-07
3.08754e-07
2.71636e-07
2.31298e-07
1.91594e-07
1.56675e-07
1.28527e-07
1.07685e-07
9.30598e-08
8.28085e-08
7.71014e-08
7.22934e-08
6.57858e-08
5.65756e-08
4.5028e-08
3.79145e-08
4.22093e-08
6.02675e-08
9.22192e-08
1.26123e-07
1.25618e-07
1.13651e-07
7.77509e-08
6.06559e-08
4.25437e-08
4.08265e-08
3.39504e-08
2.93687e-08
1.82773e-08
1.8253e-08
1.51544e-08
1.50292e-08
2.28173e-08
2.99057e-08
4.29508e-08
4.54439e-08
5.14514e-08
5.18522e-08
5.88445e-08
6.83335e-08
8.48759e-08
1.03427e-07
1.23523e-07
1.34698e-07
1.417e-07
1.46944e-07
1.49263e-07
1.45727e-07
1.34559e-07
1.17418e-07
9.7368e-08
7.72435e-08
5.87905e-08
4.27773e-08
2.98464e-08
2.02835e-08
1.3644e-08
9.60036e-09
7.04816e-09
6.25337e-09
6.78531e-09
8.27227e-09
1.03402e-08
1.23018e-08
1.27389e-08
1.25837e-08
1.33963e-08
1.59274e-08
2.30788e-08
3.35721e-08
4.61634e-08
4.87981e-08
4.88911e-08
3.54739e-08
2.98806e-08
2.76747e-08
2.89204e-08
2.67468e-08
2.27502e-08
1.68218e-08
1.55624e-08
1.96407e-08
2.84135e-08
4.20378e-08
4.49417e-08
4.78489e-08
4.44978e-08
4.00226e-08
3.80727e-08
4.02302e-08
4.3926e-08
4.81917e-08
5.06916e-08
5.31929e-08
5.48503e-08
5.4823e-08
5.18053e-08
4.48657e-08
3.56262e-08
2.62894e-08
1.82009e-08
1.18596e-08
7.22255e-09
4.04628e-09
2.06386e-09
9.83639e-10
4.56884e-10
2.37748e-10
1.31609e-10
1.07281e-10
1.31868e-10
2.23853e-10
4.60649e-10
9.50156e-10
1.73452e-09
2.85619e-09
4.36707e-09
7.08315e-09
1.12857e-08
1.82485e-08
2.543e-08
2.99369e-08
2.90935e-08
2.69747e-08
2.19884e-08
1.9099e-08
2.0171e-08
2.23069e-08
2.132e-08
1.55887e-08
1.71996e-08
2.5487e-08
4.02422e-08
4.52569e-08
4.58346e-08
4.08586e-08
3.1309e-08
2.28861e-08
1.89196e-08
1.8447e-08
1.86581e-08
1.88296e-08
1.90888e-08
1.89821e-08
1.82822e-08
1.63728e-08
1.33754e-08
9.74667e-09
6.33076e-09
3.6891e-09
1.9483e-09
9.23774e-10
3.80583e-10
1.26669e-10
3.1533e-11
6.22395e-12
5.17358e-13
-1.17281e-12
-1.843e-12
-2.40644e-12
-2.71556e-12
-2.42743e-12
2.50251e-13
1.34417e-11
7.09813e-11
2.68854e-10
9.05211e-10
2.54692e-09
6.12209e-09
1.18032e-08
1.97741e-08
2.59756e-08
2.66684e-08
2.54498e-08
2.21538e-08
1.81178e-08
1.60111e-08
1.69904e-08
1.83367e-08
1.51437e-08
2.12417e-08
3.59518e-08
4.5339e-08
4.59572e-08
4.0736e-08
2.90498e-08
1.69932e-08
1.01958e-08
7.8393e-09
7.14499e-09
6.85466e-09
6.60128e-09
6.16309e-09
5.56429e-09
4.70188e-09
3.64017e-09
2.46313e-09
1.4257e-09
6.9175e-10
2.7949e-10
9.16165e-11
2.25616e-11
2.99093e-12
-6.95776e-13
-1.03292e-12
-1.41077e-12
-1.80765e-12
-2.22524e-12
-2.7126e-12
-3.19457e-12
-3.60102e-12
-3.85067e-12
-4.01074e-12
-3.99047e-12
-3.46977e-12
5.66172e-12
9.35363e-11
6.23192e-10
2.49456e-09
6.87168e-09
1.42037e-08
2.25817e-08
2.74724e-08
2.70502e-08
2.47312e-08
2.0404e-08
1.66419e-08
1.52506e-08
1.55006e-08
1.73453e-08
2.99083e-08
4.32424e-08
4.6611e-08
4.25023e-08
3.05002e-08
1.60214e-08
7.01954e-09
3.62802e-09
2.68174e-09
2.36109e-09
2.14588e-09
1.89672e-09
1.61009e-09
1.28107e-09
9.4837e-10
6.16608e-10
3.33799e-10
1.39185e-10
4.17509e-11
8.20412e-12
4.35878e-13
-3.97271e-13
-6.20285e-13
-9.01978e-13
-1.24428e-12
-1.64512e-12
-2.10324e-12
-2.6141e-12
-3.16415e-12
-3.72159e-12
-4.23755e-12
-4.65955e-12
-4.93827e-12
-4.96227e-12
-4.91911e-12
-5.21879e-12
4.27597e-13
8.74045e-11
6.95398e-10
2.97809e-09
8.51735e-09
1.7203e-08
2.53836e-08
3.05237e-08
2.94866e-08
2.57514e-08
2.03199e-08
1.63372e-08
1.43102e-08
2.22925e-08
3.85376e-08
4.63077e-08
4.43468e-08
3.40416e-08
1.80329e-08
6.57368e-09
2.10452e-09
1.01026e-09
7.47621e-10
6.36188e-10
5.42653e-10
4.44294e-10
3.41588e-10
2.48078e-10
1.6278e-10
9.10425e-11
3.86455e-11
1.07024e-11
1.37505e-12
-1.70844e-13
-3.15384e-13
-4.83755e-13
-6.89745e-13
-9.48511e-13
-1.27131e-12
-1.66486e-12
-2.13396e-12
-2.67644e-12
-3.28019e-12
-3.91913e-12
-4.55033e-12
-5.11928e-12
-5.56717e-12
-5.80852e-12
-5.91269e-12
-5.90999e-12
-5.00648e-12
3.28453e-12
1.19478e-10
9.02036e-10
3.88452e-09
1.08375e-08
2.04544e-08
2.90674e-08
3.44565e-08
3.24269e-08
2.68829e-08
2.06713e-08
1.49416e-08
2.97617e-08
4.4928e-08
4.61361e-08
3.90714e-08
2.26111e-08
7.99103e-09
1.82839e-09
4.52354e-10
2.24359e-10
1.70735e-10
1.41855e-10
1.16019e-10
9.0111e-11
6.69959e-11
4.6484e-11
2.88946e-11
1.44375e-11
4.99424e-12
7.72418e-13
-1.30307e-13
-2.35672e-13
-3.50854e-13
-4.87027e-13
-6.59594e-13
-8.83507e-13
-1.17074e-12
-1.53025e-12
-1.97068e-12
-2.4962e-12
-3.103e-12
-3.77462e-12
-4.47758e-12
-5.16096e-12
-5.76104e-12
-6.20269e-12
-6.46629e-12
-6.47435e-12
-5.71206e-12
-4.88598e-12
8.29324e-12
1.82917e-10
1.29869e-09
5.32457e-09
1.37369e-08
2.45389e-08
3.35751e-08
3.8564e-08
3.53705e-08
2.76978e-08
1.812e-08
3.82022e-08
4.68833e-08
4.36881e-08
2.91974e-08
1.14582e-08
2.42603e-09
3.34629e-10
7.16247e-11
4.08301e-11
3.24231e-11
2.70107e-11
2.19829e-11
1.74158e-11
1.31051e-11
9.03766e-12
5.20992e-12
2.08417e-12
3.90416e-13
-1.53216e-13
-2.19214e-13
-2.79799e-13
-3.53959e-13
-4.52274e-13
-5.84634e-13
-7.61431e-13
-9.92822e-13
-1.28867e-12
-1.66063e-12
-2.11894e-12
-2.66915e-12
-3.30706e-12
-4.01296e-12
-4.74751e-12
-5.45175e-12
-6.05268e-12
-6.48952e-12
-6.65511e-12
-6.24479e-12
-5.47477e-12
-4.24277e-12
2.05174e-11
3.16497e-10
2.02598e-09
7.50015e-09
1.76819e-08
2.98917e-08
3.90059e-08
4.0569e-08
3.68833e-08
2.38021e-08
4.47762e-08
4.68332e-08
3.72545e-08
1.7835e-08
4.28269e-09
4.94629e-10
3.89992e-11
8.45587e-12
5.43745e-12
4.4181e-12
3.7415e-12
3.16788e-12
2.47474e-12
1.8388e-12
1.0418e-12
3.3091e-13
-1.12535e-13
-2.1243e-13
-2.59643e-13
-2.82806e-13
-3.04956e-13
-3.40524e-13
-3.98099e-13
-4.83515e-13
-6.02279e-13
-7.60916e-13
-9.68082e-13
-1.23615e-12
-1.57962e-12
-2.01249e-12
-2.54344e-12
-3.16934e-12
-3.86853e-12
-4.59658e-12
-5.28855e-12
-5.8703e-12
-6.23345e-12
-6.18123e-12
-5.69173e-12
-4.80345e-12
-2.26352e-12
5.3512e-11
6.05086e-10
3.3276e-09
1.07812e-08
2.34254e-08
3.64309e-08
4.48244e-08
4.30881e-08
3.19087e-08
4.8178e-08
4.49323e-08
2.755e-08
8.49542e-09
1.12916e-09
6.25373e-11
2.0634e-12
-8.87899e-15
-3.50052e-13
-5.26762e-13
-5.71849e-13
-5.57976e-13
-4.68887e-13
-4.7436e-13
-4.98737e-13
-4.95828e-13
-4.66932e-13
-4.22383e-13
-3.73973e-13
-3.3397e-13
-3.10609e-13
-3.07549e-13
-3.25485e-13
-3.6349e-13
-4.20261e-13
-4.95877e-13
-5.94538e-13
-7.26327e-13
-9.08467e-13
-1.16162e-12
-1.50233e-12
-1.94089e-12
-2.48703e-12
-3.12645e-12
-3.80342e-12
-4.44663e-12
-4.96999e-12
-5.24309e-12
-5.15781e-12
-4.65227e-12
-3.24376e-12
3.41936e-12
1.4405e-10
1.22816e-09
5.6151e-09
1.59689e-08
3.08412e-08
4.37468e-08
4.75829e-08
3.93627e-08
4.93046e-08
3.89743e-08
1.68183e-08
3.08339e-09
2.0492e-10
3.70455e-12
-1.06986e-12
-1.35025e-12
-1.58979e-12
-1.69286e-12
-1.65609e-12
-1.54143e-12
-1.38977e-12
-1.22016e-12
-1.04422e-12
-8.68795e-13
-7.02876e-13
-5.57196e-13
-4.39337e-13
-3.51959e-13
-2.93594e-13
-2.59672e-13
-2.43956e-13
-2.38924e-13
-2.37155e-13
-2.28648e-13
-2.11415e-13
-1.97066e-13
-1.76103e-13
-1.82626e-13
-1.16875e-13
-1.3274e-13
-3.73132e-13
-7.58855e-13
-1.14124e-12
-1.85434e-12
-2.50882e-12
-3.07604e-12
-3.49204e-12
-3.54041e-12
-2.95699e-12
-1.50449e-12
2.66617e-11
3.89784e-10
2.54581e-09
9.59963e-09
2.33914e-08
3.97665e-08
4.96756e-08
4.54929e-08
4.81611e-08
3.01266e-08
8.45641e-09
8.41001e-10
2.45945e-11
-1.32176e-12
-1.85321e-12
-2.30736e-12
-2.60165e-12
-2.68943e-12
-2.5888e-12
-2.35397e-12
-2.04432e-12
-1.70777e-12
-1.37812e-12
-1.07798e-12
-8.21063e-13
-6.13353e-13
-4.54417e-13
-3.39267e-13
-2.59774e-13
-2.05151e-13
-1.63776e-13
-1.26335e-13
-6.37339e-14
4.55222e-14
4.29909e-13
1.29086e-12
2.81816e-12
5.11256e-12
7.81608e-12
1.03294e-11
1.20384e-11
1.18228e-11
1.01994e-11
7.55185e-12
4.42168e-12
1.63154e-12
-2.45948e-13
-1.06988e-12
-1.54924e-12
-1.00099e-12
2.48605e-12
1.09861e-10
1.03594e-09
5.17689e-09
1.60686e-08
3.31319e-08
4.88506e-08
4.90449e-08
4.46154e-08
2.03159e-08
3.43284e-09
1.76741e-10
6.22008e-13
-2.18975e-12
-2.71974e-12
-3.23608e-12
-3.52794e-12
-3.54543e-12
-3.32729e-12
-2.94899e-12
-2.48945e-12
-2.01418e-12
-1.5696e-12
-1.18333e-12
-8.67235e-13
-6.21636e-13
-4.39528e-13
-3.09979e-13
-2.19589e-13
-1.52067e-13
-9.3885e-14
-7.47755e-15
3.21921e-13
1.44311e-12
4.35427e-12
1.055e-11
2.14445e-11
3.72786e-11
5.60976e-11
7.39374e-11
8.60664e-11
8.76958e-11
8.05406e-11
6.57302e-11
4.78909e-11
3.12161e-11
1.74821e-11
7.94492e-12
2.75802e-12
5.13728e-13
2.23647e-12
2.38965e-11
3.88071e-10
2.59649e-09
1.01534e-08
2.55473e-08
4.51632e-08
5.24868e-08
3.83239e-08
1.20064e-08
1.12993e-09
3.21507e-11
-1.78156e-12
-2.62269e-12
-3.46003e-12
-4.07639e-12
-4.34218e-12
-4.25813e-12
-3.90175e-12
-3.37706e-12
-2.78267e-12
-2.19567e-12
-1.66668e-12
-1.22198e-12
-8.68856e-13
-6.01956e-13
-4.08864e-13
-2.74065e-13
-1.79947e-13
-1.04391e-13
-2.07515e-14
3.84887e-13
2.20251e-12
8.41313e-12
2.52682e-11
6.20214e-11
1.27035e-10
2.20639e-10
3.29315e-10
4.27838e-10
4.91494e-10
4.85313e-10
4.42225e-10
3.58508e-10
2.62451e-10
1.75172e-10
1.05909e-10
5.72635e-11
2.78516e-11
1.15452e-11
5.7552e-12
1.4294e-11
1.34845e-10
1.22598e-09
6.09662e-09
1.85244e-08
3.93133e-08
5.27547e-08
3.07658e-08
6.08532e-09
3.04901e-10
8.03426e-12
-2.37111e-12
-3.28071e-12
-4.23393e-12
-4.86497e-12
-5.05568e-12
-4.84618e-12
-4.34782e-12
-3.68802e-12
-2.97904e-12
-2.3035e-12
-1.71172e-12
-1.22629e-12
-8.49492e-13
-5.7091e-13
-3.73734e-13
-2.38869e-13
-1.45287e-13
-6.31136e-14
1.5175e-13
1.80231e-12
1.0217e-11
4.20158e-11
1.3391e-10
3.40814e-10
7.09355e-10
1.23198e-09
1.81665e-09
2.3075e-09
2.58737e-09
2.46423e-09
2.16565e-09
1.71295e-09
1.22054e-09
7.95945e-10
4.76226e-10
2.60592e-10
1.31076e-10
6.0073e-11
2.35186e-11
1.97598e-11
5.56189e-11
5.80422e-10
3.53995e-09
1.29888e-08
3.23994e-08
5.18384e-08
2.27456e-08
2.59514e-09
7.78945e-11
3.43004e-12
-2.70958e-12
-3.88857e-12
-4.96304e-12
-5.57507e-12
-5.66858e-12
-5.33086e-12
-4.70213e-12
-3.92629e-12
-3.12342e-12
-2.37769e-12
-1.73727e-12
-1.22091e-12
-8.2668e-13
-5.40288e-13
-3.41549e-13
-2.08546e-13
-1.1756e-13
-2.87352e-14
5.23642e-13
6.18096e-12
4.19438e-11
1.95838e-10
6.7731e-10
1.80419e-09
3.8235e-09
6.6238e-09
9.60112e-09
1.18614e-08
1.27716e-08
1.18006e-08
9.9159e-09
7.53905e-09
5.18212e-09
3.26124e-09
1.89215e-09
1.01415e-09
5.04287e-10
2.32787e-10
9.5522e-11
4.0865e-11
5.99433e-11
2.5854e-10
2.02947e-09
8.91572e-09
2.57753e-08
4.96257e-08
1.53189e-08
9.11129e-10
2.65415e-11
1.32448e-12
-3.02582e-12
-4.49509e-12
-5.64077e-12
-6.20022e-12
-6.19182e-12
-5.73958e-12
-5.00172e-12
-4.13139e-12
-3.25234e-12
-2.44867e-12
-1.76656e-12
-1.22217e-12
-8.11064e-13
-5.1643e-13
-3.15614e-13
-1.84283e-13
-9.66373e-14
-5.56577e-15
1.09372e-12
1.60907e-11
1.51096e-10
8.49786e-10
3.28089e-09
9.24827e-09
1.99834e-08
3.4396e-08
4.86765e-08
5.82103e-08
5.92727e-08
5.31587e-08
4.25616e-08
3.08893e-08
2.03706e-08
1.23253e-08
6.89747e-09
3.58523e-09
1.73814e-09
7.87804e-10
3.29157e-10
1.21258e-10
8.4231e-11
1.83423e-10
1.18721e-09
6.07744e-09
2.00331e-08
4.64454e-08
9.18862e-09
2.60099e-10
1.34227e-11
-2.56847e-14
-3.268e-12
-5.08105e-12
-6.24599e-12
-6.73804e-12
-6.64223e-12
-6.10116e-12
-5.27985e-12
-4.33527e-12
-3.39287e-12
-2.53704e-12
-1.81371e-12
-1.23874e-12
-8.0721e-13
-5.01213e-13
-2.96255e-13
-1.65459e-13
-8.1186e-14
1.1478e-14
1.49976e-12
2.97965e-11
4.4132e-10
3.33631e-09
1.52083e-08
4.62061e-08
1.01781e-07
1.727e-07
2.36155e-07
2.70936e-07
2.59198e-07
2.2327e-07
1.70351e-07
1.17647e-07
7.42341e-08
4.3141e-08
2.32618e-08
1.16955e-08
5.50454e-09
2.43106e-09
1.0062e-09
3.75087e-10
1.53996e-10
2.03977e-10
6.73899e-10
4.14251e-09
1.55013e-08
4.27794e-08
4.71227e-09
6.83466e-11
6.98654e-12
-8.4891e-13
-3.65675e-12
-5.62928e-12
-6.7614e-12
-7.19265e-12
-7.03841e-12
-6.44025e-12
-5.56124e-12
-4.55907e-12
-3.56089e-12
-2.65324e-12
-1.88443e-12
-1.2726e-12
-8.14824e-13
-4.93284e-13
-2.82165e-13
-1.50862e-13
-7.00068e-14
2.37597e-15
1.3383e-12
3.89175e-11
8.49366e-10
1.17137e-08
6.74858e-08
2.24416e-07
5.02733e-07
8.32911e-07
1.08887e-06
1.17626e-06
1.06943e-06
8.69796e-07
6.30578e-07
4.14761e-07
2.50384e-07
1.39812e-07
7.26787e-08
3.53452e-08
1.61401e-08
6.93871e-09
2.81639e-09
1.05992e-09
3.65486e-10
2.70151e-10
5.83596e-10
2.90372e-09
1.19726e-08
3.9125e-08
1.97633e-09
2.82979e-11
2.86783e-12
-1.62631e-12
-4.25219e-12
-6.11144e-12
-7.17524e-12
-7.57053e-12
-7.39422e-12
-6.77167e-12
-5.85836e-12
-4.81148e-12
-3.76111e-12
-2.79847e-12
-1.9769e-12
-1.31973e-12
-8.29412e-13
-4.88517e-13
-2.71265e-13
-1.39487e-13
-6.23639e-14
-7.59188e-15
6.45517e-13
2.30764e-11
7.61237e-10
3.18751e-08
2.83252e-07
1.07049e-06
2.4197e-06
3.84435e-06
4.73134e-06
4.74287e-06
4.09253e-06
3.12878e-06
2.15008e-06
1.34836e-06
7.79872e-07
4.18979e-07
2.10278e-07
9.90496e-08
4.39415e-08
1.84139e-08
7.31399e-09
2.73499e-09
9.20082e-10
4.20148e-10
6.21395e-10
1.99523e-09
9.55828e-09
3.57528e-08
8.34563e-10
2.29021e-11
8.04257e-13
-2.25715e-12
-4.73699e-12
-6.46484e-12
-7.47975e-12
-7.87486e-12
-7.71347e-12
-7.09704e-12
-6.17004e-12
-5.08884e-12
-3.9879e-12
-2.96511e-12
-2.08126e-12
-1.36855e-12
-8.41503e-13
-4.78861e-13
-2.60518e-13
-1.30719e-13
-5.70709e-14
-1.49886e-14
1.41385e-13
5.78173e-12
1.55155e-10
4.63737e-08
1.10924e-06
5.10651e-06
1.14063e-05
1.68609e-05
1.90856e-05
1.77465e-05
1.4333e-05
1.03101e-05
6.72282e-06
4.02896e-06
2.23793e-06
1.15925e-06
5.63001e-07
2.5748e-07
1.11246e-07
4.55384e-08
1.77021e-08
6.51426e-09
2.19116e-09
7.66981e-10
7.51928e-10
1.8304e-09
7.31285e-09
3.30135e-08
7.71851e-10
2.33187e-11
-9.83077e-14
-2.7202e-12
-5.04445e-12
-6.67233e-12
-7.67214e-12
-8.10144e-12
-7.98759e-12
-7.40412e-12
-6.48193e-12
-5.37598e-12
-4.22514e-12
-3.13386e-12
-2.17421e-12
-1.39289e-12
-8.34903e-13
-4.50355e-13
-2.44366e-13
-1.24016e-13
-5.30005e-14
-2.10313e-14
1.17733e-14
1.64061e-12
1.97365e-09
2.98352e-07
5.98075e-06
2.66388e-05
5.286e-05
6.89433e-05
7.03494e-05
6.0566e-05
4.56546e-05
3.096e-05
1.92271e-05
1.10489e-05
5.91086e-06
2.96073e-06
1.39577e-06
6.21657e-07
2.62303e-07
1.05061e-07
3.99757e-08
1.44188e-08
4.82466e-09
1.53417e-09
1.012e-09
1.88124e-09
6.52565e-09
3.02719e-08
3.32877e-09
4.95546e-11
-1.35463e-13
-2.98309e-12
-5.18151e-12
-6.75015e-12
-7.76271e-12
-8.2528e-12
-8.21047e-12
-7.67907e-12
-6.7742e-12
-5.64786e-12
-4.43976e-12
-3.25616e-12
-2.19547e-12
-1.32144e-12
-7.73458e-13
-3.78564e-13
-2.14059e-13
-1.10315e-13
1.46761e-14
5.38983e-13
1.91356e-11
3.31864e-09
3.11167e-07
7.53828e-06
5.27954e-05
0.000147037
0.000228101
0.000252812
0.000233869
0.00018602
0.000131595
8.45929e-05
5.02849e-05
2.78066e-05
1.43755e-05
6.98856e-06
3.20928e-06
1.39617e-06
5.76483e-07
2.26122e-07
8.42522e-08
2.97851e-08
9.86372e-09
3.04788e-09
1.51641e-09
2.08911e-09
7.00202e-09
2.68112e-08
8.10655e-09
1.69989e-10
1.01802e-12
-2.96928e-12
-5.15189e-12
-6.70469e-12
-7.75251e-12
-8.32387e-12
-8.36995e-12
-7.90311e-12
-7.022e-12
-5.87068e-12
-4.57577e-12
-3.22718e-12
-2.02029e-12
-1.01538e-12
-5.54707e-13
2.02738e-12
1.92276e-11
1.22212e-10
6.78577e-10
4.53575e-09
5.86023e-08
1.33881e-06
2.03301e-05
0.000134632
0.000410667
0.000711666
0.000845278
0.000825756
0.000691587
0.000511729
0.000342463
0.000210381
0.000120281
6.42378e-05
3.22319e-05
1.52699e-05
6.8523e-06
2.91803e-06
1.18046e-06
4.53808e-07
1.65825e-07
5.76006e-08
1.88676e-08
5.78212e-09
2.43937e-09
2.53851e-09
8.03366e-09
2.29229e-08
1.70779e-08
5.31311e-10
1.60353e-11
-2.63245e-12
-4.93434e-12
-6.5215e-12
-7.62358e-12
-8.29146e-12
-8.43736e-12
-8.04426e-12
-7.19013e-12
-5.99645e-12
-4.53343e-12
-2.78149e-12
-1.38216e-12
1.77473e-11
3.27465e-10
3.51516e-09
2.67465e-08
1.52634e-07
7.18445e-07
3.36265e-06
1.89599e-05
0.000113026
0.000486997
0.00129913
0.0022144
0.0026848
0.00269523
0.00235182
0.00181057
0.0012613
0.000805783
0.000476475
0.000263203
0.000136404
6.67556e-05
3.09277e-05
1.35923e-05
5.6738e-06
2.25138e-06
8.4973e-07
3.05362e-07
1.04579e-07
3.39247e-08
1.03602e-08
3.95143e-09
3.42578e-09
9.42227e-09
1.92076e-08
3.07996e-08
1.58978e-09
9.04547e-11
-1.95027e-12
-4.50608e-12
-6.18772e-12
-7.36038e-12
-8.13442e-12
-8.38434e-12
-8.06938e-12
-7.24089e-12
-5.96746e-12
-4.13905e-12
-9.05405e-13
1.78661e-10
5.43926e-09
8.92303e-08
8.86112e-07
5.84249e-06
2.75363e-05
0.000100325
0.000313319
0.000902299
0.00227979
0.00455984
0.00694239
0.00815396
0.00818976
0.00731318
0.005819
0.00420447
0.00279244
0.00171713
0.000983251
0.00052766
0.000266883
0.000127914
5.80863e-05
2.50411e-05
1.02623e-05
4.00244e-06
1.48734e-06
5.27452e-07
1.78647e-07
5.74415e-08
1.74466e-08
6.29448e-09
4.85712e-09
9.56943e-09
1.68903e-08
5.28245e-08
4.61428e-09
3.8277e-10
3.4963e-12
-3.84444e-12
-5.6911e-12
-6.95246e-12
-7.83722e-12
-8.18667e-12
-7.94936e-12
-7.14757e-12
-5.76997e-12
-3.24109e-12
2.08518e-10
1.31218e-08
3.82909e-07
5.725e-06
4.84e-05
0.000257443
0.000944705
0.00257897
0.00560667
0.0102209
0.0158986
0.0209068
0.0231759
0.0229688
0.0206852
0.0168894
0.0126295
0.00871086
0.00557575
0.00332475
0.00185444
0.000972566
0.000482311
0.000226882
0.000101139
4.28506e-05
1.72829e-05
6.64536e-06
2.43958e-06
8.56321e-07
2.87398e-07
9.16352e-08
2.76756e-08
9.68109e-09
6.86145e-09
9.80984e-09
1.89894e-08
8.9795e-08
1.26272e-08
1.4981e-09
5.89378e-11
-2.9779e-12
-5.02109e-12
-6.3952e-12
-7.39133e-12
-7.82771e-12
-7.66517e-12
-6.91942e-12
-5.64311e-12
2.78863e-11
5.34628e-09
3.23523e-07
8.54281e-06
0.000108535
0.00074272
0.00309654
0.00880503
0.0186796
0.0316446
0.044922
0.0548179
0.0585634
0.0575426
0.0523232
0.0438523
0.0339315
0.0243659
0.0162621
0.0101199
0.0058869
0.00321298
0.00165326
0.000805721
0.000372507
0.000163383
6.82282e-05
2.71673e-05
1.03313e-05
3.75738e-06
1.30803e-06
4.35445e-07
1.37781e-07
4.15818e-08
1.42778e-08
9.29077e-09
1.03337e-08
2.68407e-08
1.4667e-07
3.27378e-08
5.25483e-09
3.73426e-10
2.1656e-12
-4.20314e-12
-5.68783e-12
-6.79299e-12
-7.2988e-12
-7.20286e-12
-6.54898e-12
-5.37929e-12
3.48912e-10
5.76244e-08
3.28389e-06
7.52567e-05
0.000788099
0.00432867
0.0144034
0.0332027
0.0590233
0.0868623
0.109502
0.120184
0.120761
0.113693
0.0992485
0.0803263
0.0604695
0.0423724
0.0276653
0.0168522
0.00959758
0.00513174
0.00259126
0.00124165
0.00056556
0.000245091
0.000101308
3.99715e-05
1.5077e-05
5.44224e-06
1.88044e-06
6.2102e-07
1.95162e-07
5.89883e-08
1.99435e-08
1.16661e-08
1.20127e-08
4.49089e-08
2.26424e-07
7.6197e-08
1.73016e-08
1.8705e-09
7.84189e-11
-3.40962e-12
-4.81712e-12
-6.04102e-12
-6.59627e-12
-6.53189e-12
-5.85861e-12
-3.59129e-12
1.83323e-09
3.08001e-07
1.63851e-05
0.000325587
0.00284297
0.0129131
0.0360413
0.0716631
0.113674
0.154293
0.184392
0.196729
0.196758
0.185082
0.161217
0.129732
0.0965069
0.0666366
0.0428877
0.0257679
0.0144519
0.00758578
0.00375563
0.00176809
0.00079466
0.000341271
0.000140068
5.49197e-05
2.05937e-05
7.38879e-06
2.5367e-06
8.32386e-07
2.60668e-07
7.89323e-08
2.61913e-08
1.44415e-08
1.59083e-08
7.87794e-08
3.21292e-07
1.60501e-07
4.86558e-08
8.29514e-09
6.14078e-10
1.10559e-11
-3.65913e-12
-5.15293e-12
-5.73305e-12
-5.67366e-12
-5.17586e-12
3.33391e-12
5.37731e-09
9.25905e-07
4.6722e-05
0.000831244
0.00631739
0.0249635
0.0617086
0.111255
0.163545
0.210206
0.244293
0.260517
0.262909
0.254892
0.229061
0.187497
0.139471
0.0948781
0.0598507
0.0354125
0.0197113
0.0102922
0.00505282
0.00235344
0.00104782
0.000446827
0.000182311
7.1112e-05
2.65337e-05
9.47178e-06
3.2346e-06
1.05549e-06
3.28567e-07
9.88305e-08
3.21293e-08
1.83191e-08
2.52532e-08
1.33263e-07
4.19034e-07
2.84938e-07
1.22245e-07
2.94039e-08
3.83501e-09
1.94236e-10
-1.62049e-12
-4.21024e-12
-4.76769e-12
-4.68058e-12
-4.16909e-12
9.05558e-12
9.77731e-09
1.72967e-06
8.53441e-05
0.00142604
0.00997036
0.0362114
0.0832185
0.141408
0.197947
0.24456
0.277626
0.295915
0.301581
0.300822
0.286752
0.248491
0.190712
0.129091
0.0785124
0.0444621
0.0240337
0.0124274
0.00610251
0.00284399
0.00126434
0.000537802
0.000218789
8.50744e-05
3.16251e-05
1.12352e-05
3.81388e-06
1.2371e-06
3.83731e-07
1.14588e-07
3.8089e-08
2.36426e-08
4.61256e-08
2.08048e-07
4.97433e-07
4.38996e-07
2.48961e-07
9.0195e-08
1.79084e-08
1.82185e-09
6.53992e-11
-3.25685e-12
-3.84587e-12
-3.72763e-12
-3.33979e-12
1.23063e-11
1.2183e-08
2.21224e-06
0.000110075
0.0018054
0.0122203
0.0428616
0.0955049
0.158082
0.216034
0.260786
0.290286
0.306324
0.312548
0.313597
0.308292
0.278261
0.219986
0.153039
0.0952627
0.054157
0.0288157
0.0146305
0.00712739
0.00331129
0.00146533
0.000619908
0.000251102
9.73148e-05
3.60563e-05
1.27836e-05
4.34695e-06
1.41788e-06
4.39847e-07
1.28684e-07
4.43678e-08
3.21511e-08
8.36574e-08
2.95819e-07
5.5482e-07
5.6553e-07
4.3144e-07
2.16821e-07
6.80924e-08
1.16392e-08
9.82142e-10
2.70953e-11
-3.11753e-12
-2.94136e-12
-2.71315e-12
1.02458e-11
1.15716e-08
2.23119e-06
0.000113272
0.00187326
0.0126899
0.0444039
0.0986447
0.162731
0.221345
0.265418
0.293096
0.307097
0.312025
0.312729
0.306186
0.273262
0.214627
0.149808
0.0942003
0.0541668
0.02921
0.0150281
0.00738942
0.00346223
0.00154215
0.000654299
0.000265252
0.000102837
3.80994e-05
1.34836e-05
4.55403e-06
1.45918e-06
4.39614e-07
1.30361e-07
5.32368e-08
4.63732e-08
1.46835e-07
3.80374e-07
5.81979e-07
6.48938e-07
6.04566e-07
4.2411e-07
1.92707e-07
5.56925e-08
8.52279e-09
6.47316e-10
1.64927e-11
-2.34868e-12
-2.06279e-12
2.24913e-12
4.41273e-09
1.03418e-06
6.2709e-05
0.00120152
0.00916101
0.0351404
0.0836682
0.145266
0.204901
0.251678
0.281968
0.297771
0.303599
0.304499
0.294596
0.25458
0.196346
0.137325
0.0875264
0.05122
0.0279243
0.0144259
0.00711309
0.00334122
0.0014919
0.000634226
0.000257487
9.99413e-05
3.70604e-05
1.31191e-05
4.42389e-06
1.41119e-06
4.22321e-07
1.28854e-07
6.6009e-08
7.27046e-08
2.19929e-07
4.4414e-07
5.4702e-07
6.94407e-07
7.24108e-07
6.41154e-07
4.21978e-07
1.82475e-07
5.02299e-08
7.32397e-09
5.44721e-10
1.59726e-11
-1.18351e-12
5.28317e-14
1.64057e-09
4.44015e-07
3.09959e-05
0.000679224
0.0058392
0.0247598
0.0637713
0.117535
0.17352
0.220715
0.253715
0.272383
0.279821
0.281
0.265802
0.219775
0.166209
0.116645
0.0752932
0.0448032
0.0248383
0.0129725
0.00643574
0.00303681
0.00136157
0.000580877
0.000236501
9.20069e-05
3.4182e-05
1.21043e-05
4.07087e-06
1.28639e-06
3.82735e-07
1.27857e-07
8.25707e-08
1.15459e-07
2.98563e-07
4.67999e-07
4.12398e-07
7.12918e-07
7.73974e-07
7.94632e-07
6.76293e-07
4.3829e-07
1.86196e-07
5.06369e-08
7.63655e-09
6.40589e-10
3.4123e-11
7.76065e-12
3.96757e-10
1.14255e-07
9.93833e-06
0.000269614
0.00281158
0.0140296
0.0410611
0.0832251
0.131594
0.17572
0.208781
0.228657
0.23688
0.238028
0.218418
0.173562
0.130064
0.0919538
0.06005
0.0362404
0.0204116
0.0108181
0.00542342
0.00257885
0.0011638
0.000499256
0.000204128
7.96739e-05
2.96496e-05
1.04958e-05
3.50287e-06
1.09326e-06
3.28545e-07
1.30864e-07
1.05275e-07
1.89128e-07
3.68256e-07
4.41273e-07
2.91674e-07
5.86842e-07
8.00726e-07
8.45886e-07
8.62395e-07
7.27665e-07
4.72227e-07
2.0476e-07
5.88668e-08
1.01203e-08
1.11511e-09
1.91109e-10
1.50032e-10
2.03951e-08
2.22456e-06
7.70012e-05
0.00101186
0.00619148
0.0214239
0.0494053
0.085882
0.122556
0.152118
0.170871
0.178895
0.180002
0.161247
0.125259
0.0942394
0.0673178
0.0444177
0.0271411
0.0155083
0.00834009
0.00423593
0.00203607
0.000927575
0.000401097
0.000165008
6.462e-05
2.40832e-05
8.4728e-06
2.79935e-06
8.5775e-07
2.73051e-07
1.43359e-07
1.38654e-07
2.52308e-07
3.58832e-07
3.79269e-07
1.14461e-07
4.68219e-07
6.36069e-07
8.77147e-07
9.03037e-07
9.33145e-07
7.98276e-07
5.25954e-07
2.47122e-07
8.00605e-08
1.65346e-08
2.7701e-09
1.10228e-09
3.36537e-09
3.21108e-07
1.47449e-05
0.00025474
0.00199733
0.00852893
0.0232629
0.0459172
0.0718051
0.0947491
0.110449
0.117726
0.119169
0.107217
0.0827632
0.0630952
0.0455807
0.030377
0.0187921
0.0108974
0.00594767
0.00306252
0.00149053
0.000686565
0.000299792
0.000124138
4.88276e-05
1.81149e-05
6.33768e-06
2.04053e-06
6.32596e-07
2.31397e-07
1.61771e-07
1.83759e-07
2.89036e-07
3.28227e-07
2.63159e-07
7.94074e-08
1.37172e-07
5.09309e-07
6.69014e-07
9.57938e-07
9.77023e-07
9.99418e-07
8.71823e-07
6.15303e-07
3.25323e-07
1.21288e-07
3.166e-08
7.91925e-09
4.16155e-09
3.44882e-08
1.76476e-06
4.16487e-05
0.000436833
0.00240884
0.00812325
0.0189648
0.0336481
0.0486099
0.06016
0.0664591
0.0682138
0.0639985
0.0501271
0.0386335
0.0283209
0.0191036
0.0119863
0.00706691
0.00391959
0.00204817
0.00100999
0.000470795
0.000207406
8.6549e-05
3.39628e-05
1.25996e-05
4.28568e-06
1.3867e-06
4.41518e-07
2.14649e-07
1.84208e-07
2.25627e-07
2.68391e-07
2.77305e-07
1.51228e-07
2.11764e-08
1.03602e-07
1.39337e-07
5.07288e-07
6.72343e-07
9.93208e-07
1.03435e-06
1.05112e-06
9.58931e-07
7.45093e-07
4.44343e-07
1.97432e-07
6.73927e-08
2.25654e-08
1.36019e-08
1.40397e-07
4.02101e-06
5.90324e-05
0.000441292
0.00193706
0.00562582
0.0118836
0.0196124
0.0267539
0.0315229
0.0334374
0.0334244
0.0277044
0.0213456
0.0159434
0.0109646
0.00700269
0.00420698
0.00237593
0.0012615
0.000631135
0.00029743
0.000132401
5.52169e-05
2.17942e-05
7.84368e-06
2.70833e-06
8.36964e-07
3.25144e-07
2.01024e-07
1.92346e-07
2.20267e-07
2.40659e-07
1.70974e-07
7.6801e-08
1.66115e-08
2.64393e-08
9.2393e-08
1.23919e-07
4.68299e-07
6.18913e-07
9.81852e-07
1.06161e-06
1.08944e-06
1.05889e-06
8.91555e-07
6.10915e-07
3.38094e-07
1.44238e-07
5.9015e-08
3.73791e-08
2.58952e-07
4.47001e-06
4.74821e-05
0.000286329
0.00109571
0.00291784
0.00582043
0.00921544
0.0121217
0.0138512
0.0143658
0.0136135
0.0105042
0.00800778
0.00566175
0.00371243
0.00227704
0.00131219
0.000709444
0.000359889
0.000171953
7.66398e-05
3.23262e-05
1.235e-05
4.58424e-06
1.43697e-06
5.39495e-07
2.32184e-07
1.91643e-07
1.89267e-07
2.03087e-07
1.69106e-07
1.06617e-07
2.8308e-08
1.02426e-08
1.83148e-08
1.86619e-08
7.09255e-08
9.21146e-08
3.77081e-07
5.17394e-07
8.89857e-07
1.05379e-06
1.12262e-06
1.12208e-06
1.02883e-06
8.23349e-07
5.51277e-07
2.98296e-07
1.45623e-07
9.28172e-08
2.56131e-07
2.83606e-06
2.38393e-05
0.000126818
0.000451068
0.00115317
0.00224458
0.00348984
0.00452124
0.00508093
0.00521746
0.0045912
0.00348969
0.00257558
0.00174909
0.00110244
0.000650231
0.000358035
0.000184981
8.87261e-05
4.02323e-05
1.64153e-05
6.57279e-06
2.14735e-06
8.58983e-07
2.69103e-07
1.99114e-07
1.73683e-07
1.75567e-07
1.4946e-07
1.21251e-07
2.88935e-08
1.85304e-08
9.25045e-09
1.05319e-08
1.62857e-08
1.58815e-08
5.52248e-08
5.22739e-08
2.55528e-07
3.6922e-07
6.84747e-07
9.24955e-07
1.10758e-06
1.15244e-06
1.10591e-06
1.02644e-06
8.29759e-07
5.66217e-07
3.30906e-07
2.05738e-07
2.0335e-07
1.21177e-06
7.95218e-06
3.91337e-05
0.000134879
0.000341562
0.000666412
0.00104145
0.00135023
0.00150916
0.00153936
0.00130024
0.000986013
0.000704497
0.000463092
0.000280278
0.000158574
8.25924e-05
4.05635e-05
1.78175e-05
7.71171e-06
2.67909e-06
1.1475e-06
3.0521e-07
2.18821e-07
1.57301e-07
1.56337e-07
1.30759e-07
1.18042e-07
2.94771e-08
2.12271e-08
5.4349e-09
8.82759e-09
9.88076e-09
1.00141e-08
1.24107e-08
1.04221e-08
3.67887e-08
3.68781e-08
1.35972e-07
2.10901e-07
4.12209e-07
6.34323e-07
8.97123e-07
1.07923e-06
1.14211e-06
1.15171e-06
1.05429e-06
9.20512e-07
6.85921e-07
4.53483e-07
3.28028e-07
4.27007e-07
1.95061e-06
8.31497e-06
2.82962e-05
7.31131e-05
0.000146531
0.000234535
0.000309864
0.000349588
0.000356995
0.000298679
0.000226907
0.000157193
0.000100594
5.82404e-05
3.16931e-05
1.53493e-05
7.25422e-06
2.76125e-06
1.25565e-06
3.52402e-07
2.47545e-07
1.18994e-07
1.43918e-07
1.09367e-07
1.03203e-07
3.08958e-08
2.16709e-08
1.29263e-08
8.68189e-09
9.11894e-09
9.56579e-09
1.02998e-08
1.03349e-08
1.15269e-08
1.08163e-08
2.35225e-08
2.82396e-08
6.07547e-08
9.61268e-08
1.76804e-07
2.94477e-07