-3 150 150 150 -1 150 150 150
-1 255 255 255 1 255 255 255
1 75 75 75 3 75 75 75
