#	blue - white - red
#COLOR_MODEL = RGB
#
-0.6	75	0	75 -0.4	0	0	150
-0.4	0	0	200	-0.1	0	200	200
-0.1	0	200	200	 0  	200	200	200
0   	200	200	200	 0.1	200	200	0
0.1 	200	200	0	 0.4	200	0	0
0.4 	200	0	0	 0.6	0	0	0
