#	blue - white - red
#COLOR_MODEL = RGB
#
-0.6	75	0	75 -0.4	0	0	150
-0.4	0	0	255	-0.1	0	255	255
-0.1	0	255	255	 0  	255	255	255
0   	255	255	255	 0.1	255	255	0
0.1 	255	255	0	 0.4	255	0	0
0.4 	255	0	0	 0.6	70	20 0
