#	hot reversed with less white-yellow
#COLOR_MODEL = RGB
#
0   	255	255	255	0.1 	255	255	0
0.1  	255	255	0	0.4 	255	0	0
0.4   	255	0	0	0.7 	0	0	0
