#	blue - white - red
#COLOR_MODEL = RGB
#
-3     255 255 255  -2     255 255 0
-2     255 255 0    -1     255 0   0
-1     255 0   0    0      75  0   75
0      75  0   75   1    0   0   150
1      0   0   150  1.5    0   0   255
1.5    0   0   255  2      0   255 255
2      0   255 255  3      255 255 255


