/*--------------------------------*- C++ -*----------------------------------*\
| =========                 |                                                 |
| \\      /  F ield         | OpenFOAM: The Open Source CFD Toolbox           |
|  \\    /   O peration     | Version:  dev                                   |
|   \\  /    A nd           | Web:      www.OpenFOAM.org                      |
|    \\/     M anipulation  |                                                 |
\*---------------------------------------------------------------------------*/
FoamFile
{
    version     2.0;
    format      ascii;
    class       volScalarField;
    location    "0";
    object      stable.sigma;
}
// * * * * * * * * * * * * * * * * * * * * * * * * * * * * * * * * * * * * * //

dimensions      [0 0 0 0 0 0 0];

internalField   uniform 1;

boundaryField
{
    ground
    {
        type            zeroGradient; //fixedValue;
//        value           uniform 0.5;
    }
    top
    {
        type            zeroGradient; //fixedValue;
//        value           uniform 0.5;
    }
    left
    {
        type            zeroGradient; //fixedValue;
//        value           uniform 0.5;
    }
    right
    {
        type            zeroGradient; //fixedValue;
//        value           uniform 0.5;
    }
}


// ************************************************************************* //
